<?xml version="1.0" encoding="ISO-8859-1"?>
<modeling>
 <generator>
  <i name="program" type="string">vasp </i>
  <i name="version" type="string">5.4.4.18Apr17-6-g9f103f2a35  </i>
  <i name="subversion" type="string">(build Jul 24 2019 14:41:59) complex            parallel </i>
  <i name="platform" type="string">IFC18.0.1.163_CrayMPICH7.7.6_MKL18.0.1.163 </i>
  <i name="date" type="string">2021 01 15 </i>
  <i name="time" type="string">12:36:20 </i>
 </generator>
 <incar>
  <i type="string" name="PREC">normal</i>
  <i type="string" name="ALGO"> fast</i>
  <i type="int" name="NSIM">     1</i>
  <i type="int" name="ISPIN">     2</i>
  <i name="AMIX">      0.20000000</i>
  <i name="BMIX">      0.00100000</i>
  <i name="AMIX_MAG">      0.80000000</i>
  <i name="BMIX_MAG">      0.00100000</i>
  <i type="int" name="ICHARG">     1</i>
  <i type="int" name="NELMIN">     4</i>
  <i type="int" name="IBRION">     3</i>
  <i name="EDIFFG">     -0.05000000</i>
  <i type="int" name="NSW">   800</i>
  <i type="int" name="ISIF">     0</i>
  <i name="ENCUT">    300.00000000</i>
  <i name="POTIM">      0.05000000</i>
  <i type="string" name="LREAL"> auto</i>
  <i type="logical" name="LPLANE"> F  </i>
  <i type="int" name="ISMEAR">     0</i>
  <i name="SIGMA">      0.20000000</i>
  <i type="int" name="LMAXMIX">     4</i>
  <i type="logical" name="LWAVE"> F  </i>
  <i type="logical" name="LCHARG"> F  </i>
  <i type="int" name="LORBIT">    11</i>
  <v type="int" name="KPOINT_BSE">    -1     0     0     0</v>
  <i type="logical" name="LDAU"> T  </i>
  <v type="int" name="LDAUL">     2************</v>
  <v name="LDAUU">      2.50000000      0.00000000      0.00000000</v>
  <v name="LDAUJ">      0.00000000      0.00000000      0.00000000</v>
  <i type="int" name="IDIPOL">     3</i>
 </incar>
 <structure name="primitive_cell" >
  <crystal>
   <varray name="basis" >
    <v>      15.00000000       0.00000000       0.00000000 </v>
    <v>       0.00000000      15.00000000       0.00000000 </v>
    <v>       0.00000000       0.00000000      15.00000000 </v>
   </varray>
   <i name="volume">   3375.00000000 </i>
   <varray name="rec_basis" >
    <v>       0.06666667       0.00000000       0.00000000 </v>
    <v>       0.00000000       0.06666667       0.00000000 </v>
    <v>       0.00000000       0.00000000       0.06666667 </v>
   </varray>
  </crystal>
  <varray name="positions" >
   <v>      -0.50000000      -0.50000000       0.41281216 </v>
   <v>      -0.50000000      -0.50000000      -0.41281216 </v>
  </varray>
 </structure>
 <varray name="primitive_index" >
  <v type="int" >        1 </v>
  <v type="int" >        2 </v>
 </varray>
 <kpoints>
  <generation param="Monkhorst-Pack">
   <v type="int" name="divisions">       1        1        1 </v>
   <v name="usershift">      0.00000000       0.00000000       0.00000000 </v>
   <v name="genvec1">      1.00000000       0.00000000       0.00000000 </v>
   <v name="genvec2">      0.00000000       1.00000000       0.00000000 </v>
   <v name="genvec3">      0.00000000       0.00000000       1.00000000 </v>
   <v name="shift">      0.00000000       0.00000000       0.00000000 </v>
  </generation>
  <varray name="kpointlist" >
   <v>       0.00000000       0.00000000       0.00000000 </v>
  </varray>
  <varray name="weights" >
   <v>       1.00000000 </v>
  </varray>
 </kpoints>
 <parameters>
  <separator name="general" >
   <i type="string" name="SYSTEM">unknown system</i>
   <i type="logical" name="LCOMPAT"> F  </i>
  </separator>
  <separator name="electronic" >
   <i type="string" name="PREC">normal</i>
   <i name="ENMAX">    300.00000000</i>
   <i name="ENAUG">    374.51300000</i>
   <i name="EDIFF">      0.00010000</i>
   <i type="int" name="IALGO">    68</i>
   <i type="int" name="IWAVPR">    11</i>
   <i type="int" name="NBANDS">    16</i>
   <i name="NELECT">     18.00000000</i>
   <i type="int" name="TURBO">     0</i>
   <i type="int" name="IRESTART">     0</i>
   <i type="int" name="NREBOOT">     0</i>
   <i type="int" name="NMIN">     0</i>
   <i name="EREF">      0.00000000</i>
   <separator name="electronic smearing" >
    <i type="int" name="ISMEAR">     0</i>
    <i name="SIGMA">      0.20000000</i>
    <i name="KSPACING">      0.50000000</i>
    <i type="logical" name="KGAMMA"> T  </i>
   </separator>
   <separator name="electronic projectors" >
    <i type="logical" name="LREAL"> T  </i>
    <v name="ROPT">     -0.00050000</v>
    <i type="int" name="LMAXPAW">  -100</i>
    <i type="int" name="LMAXMIX">     4</i>
    <i type="logical" name="NLSPLINE"> F  </i>
   </separator>
   <separator name="electronic startup" >
    <i type="int" name="ISTART">     0</i>
    <i type="int" name="ICHARG">     1</i>
    <i type="int" name="INIWAV">     1</i>
   </separator>
   <separator name="electronic spin" >
    <i type="int" name="ISPIN">     2</i>
    <i type="logical" name="LNONCOLLINEAR"> F  </i>
    <v name="MAGMOM">      1.00000000      1.00000000</v>
    <i name="NUPDOWN">     -1.00000000</i>
    <i type="logical" name="LSORBIT"> F  </i>
    <v name="SAXIS">      0.00000000      0.00000000      1.00000000</v>
    <i type="logical" name="LSPIRAL"> F  </i>
    <v name="QSPIRAL">      0.00000000      0.00000000      0.00000000</v>
    <i type="logical" name="LZEROZ"> F  </i>
   </separator>
   <separator name="electronic exchange-correlation" >
    <i type="logical" name="LASPH"> F  </i>
    <i type="logical" name="LMETAGGA"> F  </i>
   </separator>
   <separator name="electronic convergence" >
    <i type="int" name="NELM">    60</i>
    <i type="int" name="NELMDL">    -5</i>
    <i type="int" name="NELMIN">     4</i>
    <i name="ENINI">    300.00000000</i>
    <separator name="electronic convergence detail" >
     <i type="logical" name="LDIAG"> T  </i>
     <i type="logical" name="LSUBROT"> F  </i>
     <i name="WEIMIN">      0.00100000</i>
     <i name="EBREAK">      0.00000156</i>
     <i name="DEPER">      0.30000000</i>
     <i type="int" name="NRMM">     4</i>
     <i name="TIME">      0.40000000</i>
    </separator>
   </separator>
   <separator name="electronic mixer" >
    <i name="AMIX">      0.20000000</i>
    <i name="BMIX">      0.00100000</i>
    <i name="AMIN">      0.10000000</i>
    <i name="AMIX_MAG">      0.80000000</i>
    <i name="BMIX_MAG">      0.00100000</i>
    <separator name="electronic mixer details" >
     <i type="int" name="IMIX">     4</i>
     <i type="logical" name="MIXFIRST"> F  </i>
     <i type="int" name="MAXMIX">   -45</i>
     <i name="WC">    100.00000000</i>
     <i type="int" name="INIMIX">     1</i>
     <i type="int" name="MIXPRE">     1</i>
     <i type="int" name="MREMOVE">     5</i>
    </separator>
   </separator>
   <separator name="electronic dipolcorrection" >
    <i type="logical" name="LDIPOL"> F  </i>
    <i type="logical" name="LMONO"> F  </i>
    <i type="int" name="IDIPOL">     3</i>
    <i name="EPSILON">      1.00000000</i>
    <v name="DIPOL">   -100.00000000   -100.00000000   -100.00000000</v>
    <i name="EFIELD">      0.00000000</i>
   </separator>
  </separator>
  <separator name="grids" >
   <i type="int" name="NGX">    64</i>
   <i type="int" name="NGY">    64</i>
   <i type="int" name="NGZ">    64</i>
   <i type="int" name="NGXF">   128</i>
   <i type="int" name="NGYF">   128</i>
   <i type="int" name="NGZF">   128</i>
   <i type="logical" name="ADDGRID"> F  </i>
  </separator>
  <separator name="ionic" >
   <i type="int" name="NSW">   800</i>
   <i type="int" name="IBRION">     3</i>
   <i type="int" name="MDALGO">     0</i>
   <i type="int" name="ISIF">     0</i>
   <i name="PSTRESS">      0.00000000</i>
   <i name="EDIFFG">     -0.05000000</i>
   <i type="int" name="NFREE">     0</i>
   <i name="POTIM">      0.05000000</i>
   <i name="SMASS">     -3.00000000</i>
   <i name="SCALEE">      1.00000000</i>
  </separator>
  <separator name="ionic md" >
   <i name="TEBEG">      0.00010000</i>
   <i name="TEEND">      0.00010000</i>
   <i type="int" name="NBLOCK">     1</i>
   <i type="int" name="KBLOCK">   800</i>
   <i type="int" name="NPACO">   256</i>
   <i name="APACO">     16.00000000</i>
  </separator>
  <separator name="symmetry" >
   <i type="int" name="ISYM">     2</i>
   <i name="SYMPREC">      0.00001000</i>
  </separator>
  <separator name="dos" >
   <i type="int" name="LORBIT">    11</i>
   <v name="RWIGS">     -1.00000000</v>
   <i type="int" name="NEDOS">   301</i>
   <i name="EMIN">     10.00000000</i>
   <i name="EMAX">    -10.00000000</i>
   <i name="EFERMI">      0.00000000</i>
  </separator>
  <separator name="writing" >
   <i type="int" name="NWRITE">     2</i>
   <i type="logical" name="LWAVE"> F  </i>
   <i type="logical" name="LDOWNSAMPLE"> F  </i>
   <i type="logical" name="LCHARG"> F  </i>
   <i type="logical" name="LPARD"> F  </i>
   <i type="logical" name="LVTOT"> F  </i>
   <i type="logical" name="LVHAR"> F  </i>
   <i type="logical" name="LELF"> F  </i>
   <i type="logical" name="LOPTICS"> F  </i>
   <v name="STM">      0.00000000      0.00000000      0.00000000      0.00000000      0.00000000      0.00000000      0.00000000</v>
  </separator>
  <separator name="performance" >
   <i type="int" name="NPAR">    16</i>
   <i type="int" name="NSIM">     1</i>
   <i type="int" name="NBLK">    -1</i>
   <i type="logical" name="LPLANE"> F  </i>
   <i type="logical" name="LSCALAPACK"> T  </i>
   <i type="logical" name="LSCAAWARE"> F  </i>
   <i type="logical" name="LSCALU"> F  </i>
   <i type="logical" name="LASYNC"> F  </i>
   <i type="logical" name="LORBITALREAL"> F  </i>
  </separator>
  <separator name="miscellaneous" >
   <i type="int" name="IDIOT">     3</i>
   <i type="int" name="ISPECIAL">     0</i>
   <i type="logical" name="LMUSIC"> F  </i>
   <v name="POMASS">    102.90600000</v>
   <v name="DARWINR">      0.00000000</v>
   <v name="DARWINV">      1.00000000</v>
   <i type="logical" name="LCORR"> T  </i>
  </separator>
  <i type="logical" name="GGA_COMPAT"> T  </i>
  <i type="logical" name="LBERRY"> F  </i>
  <i type="int" name="ICORELEVEL">     0</i>
  <i type="logical" name="LDAU"> T  </i>
  <v type="int" name="LDAUTYPE">     2</v>
  <v type="int" name="LDAUL">     2</v>
  <v name="LDAUU">      2.50000000</v>
  <v name="LDAUJ">      0.00000000</v>
  <i type="int" name="LDAUPRINT">     0</i>
  <i type="int" name="I_CONSTRAINED_M">     0</i>
  <separator name="electronic exchange-correlation" >
   <i type="string" name="GGA">--</i>
   <i type="int" name="VOSKOWN">     0</i>
   <i type="logical" name="LHFCALC"> F  </i>
   <i type="string" name="PRECFOCK"></i>
   <i type="logical" name="LSYMGRAD"> F  </i>
   <i type="logical" name="LHFONE"> F  </i>
   <i type="logical" name="LRHFCALC"> F  </i>
   <i type="logical" name="LTHOMAS"> F  </i>
   <i type="logical" name="LMODELHF"> F  </i>
   <i name="ENCUT4O">     -1.00000000</i>
   <i type="int" name="EXXOEP">     0</i>
   <i type="int" name="FOURORBIT">     0</i>
   <i name="AEXX">      0.00000000</i>
   <i name="HFALPHA">      0.00000000</i>
   <i name="MCALPHA">      0.00000000</i>
   <i name="ALDAX">      1.00000000</i>
   <i name="AGGAX">      1.00000000</i>
   <i name="ALDAC">      1.00000000</i>
   <i name="AGGAC">      1.00000000</i>
   <i type="int" name="NKREDX">     1</i>
   <i type="int" name="NKREDY">     1</i>
   <i type="int" name="NKREDZ">     1</i>
   <i type="logical" name="SHIFTRED"> F  </i>
   <i type="logical" name="ODDONLY"> F  </i>
   <i type="logical" name="EVENONLY"> F  </i>
   <i type="int" name="LMAXFOCK">     0</i>
   <i type="int" name="NMAXFOCKAE">     0</i>
   <i type="logical" name="LFOCKAEDFT"> F  </i>
   <i name="HFSCREEN">      0.00000000</i>
   <i name="HFSCREENC">      0.00000000</i>
   <i type="int" name="NBANDSGWLOW">     0</i>
  </separator>
  <separator name="vdW DFT" >
   <i type="logical" name="LUSE_VDW"> F  </i>
   <i name="Zab_VDW">     -0.84910000</i>
   <i name="PARAM1">      0.12340000</i>
   <i name="PARAM2">      1.00000000</i>
   <i name="PARAM3">      0.00000000</i>
  </separator>
  <separator name="model GW" >
   <i type="int" name="MODEL_GW">     0</i>
   <i name="MODEL_EPS0">   1012.50000000</i>
   <i name="MODEL_ALPHA">      1.00000000</i>
  </separator>
  <separator name="linear response parameters" >
   <i type="logical" name="LEPSILON"> F  </i>
   <i type="logical" name="LRPA"> F  </i>
   <i type="logical" name="LNABLA"> F  </i>
   <i type="logical" name="LVEL"> F  </i>
   <i type="int" name="KINTER">     0</i>
   <i name="CSHIFT">      0.10000000</i>
   <i name="OMEGAMAX">     -1.00000000</i>
   <i name="DEG_THRESHOLD">      0.00200000</i>
   <i name="RTIME">     -0.10000000</i>
   <i name="WPLASMAI">      0.00000000</i>
   <v name="DFIELD">      0.00000000      0.00000000      0.00000000</v>
   <v name="WPLASMA">      0.00000000      0.00000000      0.00000000      0.00000000      0.00000000      0.00000000      0.00000000      0.00000000      0.00000000</v>
  </separator>
  <separator name="orbital magnetization" >
   <i type="logical" name="NUCIND"> F  </i>
   <v name="MAGPOS">      0.00000000      0.00000000      0.00000000</v>
   <i type="logical" name="LNICSALL"> T  </i>
   <i type="logical" name="ORBITALMAG"> F  </i>
   <i type="logical" name="LMAGBLOCH"> F  </i>
   <i type="logical" name="LCHIMAG"> F  </i>
   <i type="logical" name="LGAUGE"> T  </i>
   <i type="int" name="MAGATOM">     0</i>
   <v name="MAGDIPOL">      0.00000000      0.00000000      0.00000000</v>
   <v name="AVECCONST">      0.00000000      0.00000000      0.00000000</v>
  </separator>
  <separator name="response functions" >
   <i type="logical" name="LADDER"> F  </i>
   <i type="logical" name="LRPAFORCE"> F  </i>
   <i type="logical" name="LFXC"> F  </i>
   <i type="logical" name="LHARTREE"> T  </i>
   <i type="int" name="IBSE">     0</i>
   <v type="int" name="KPOINT">    -1     0     0     0</v>
   <i type="logical" name="LTCTE"> F  </i>
   <i type="logical" name="LTETE"> F  </i>
   <i type="logical" name="LTRIPLET"> F  </i>
   <i type="logical" name="LFXCEPS"> F  </i>
   <i type="logical" name="LFXHEG"> F  </i>
   <i type="int" name="NATURALO">     2</i>
   <i type="logical" name="L2ORDER"> F  </i>
   <i type="logical" name="LMP2LT"> F  </i>
   <i type="logical" name="LUSEW"> F  </i>
   <i name="ENCUTGW">     -2.00000000</i>
   <i name="ENCUTGWSOFT">     -2.00000000</i>
   <i name="ENCUTLF">     -1.00000000</i>
   <i type="int" name="LMAXMP2">    -1</i>
   <i name="SCISSOR">      0.00000000</i>
   <i type="int" name="NOMEGA">     0</i>
   <i type="int" name="NOMEGAR">     0</i>
   <i type="int" name="NBANDSGW">    -1</i>
   <i type="int" name="NBANDSO">    -1</i>
   <i type="int" name="NBANDSV">    -1</i>
   <i type="int" name="NELM">     1</i>
   <i type="int" name="NELMHF">     1</i>
   <i type="int" name="DIM">     3</i>
   <i type="int" name="ANTIRES">     0</i>
   <i name="OMEGAMAX">    -30.00000000</i>
   <i name="OMEGAMIN">    -30.00000000</i>
   <i name="OMEGATL">   -200.00000000</i>
   <i type="int" name="OMEGAGRID">   140</i>
   <i name="CSHIFT">     -0.10000000</i>
   <i type="logical" name="SELFENERGY"> F  </i>
   <i type="logical" name="LSPECTRAL"> F  </i>
   <i type="logical" name="LSPECTRALGW"> F  </i>
   <i type="logical" name="LSINGLES"> F  </i>
   <i type="logical" name="LFERMIGW"> F  </i>
   <i type="logical" name="ODDONLYGW"> F  </i>
   <i type="logical" name="EVENONLYGW"> F  </i>
   <i type="int" name="NKREDLFX">     1</i>
   <i type="int" name="NKREDLFY">     1</i>
   <i type="int" name="NKREDLFZ">     1</i>
   <i type="int" name="MAXMEM">  2800</i>
   <i type="int" name="TELESCOPE">     0</i>
   <i type="int" name="TAUPAR">     1</i>
   <i type="int" name="OMEGAPAR">    -1</i>
   <i name="LAMBDA">      1.00000000</i>
  </separator>
  <separator name="External order field" >
   <i name="OFIELD_KAPPA">      0.00000000</i>
   <v name="OFIELD_K">      0.00000000      0.00000000      0.00000000</v>
   <i name="OFIELD_Q6_NEAR">      0.00000000</i>
   <i name="OFIELD_Q6_FAR">      0.00000000</i>
   <i name="OFIELD_A">      0.00000000</i>
  </separator>
 </parameters>
 <atominfo>
  <atoms>       2 </atoms>
  <types>       1 </types>
  <array name="atoms" >
   <dimension dim="1">ion</dimension>
   <field type="string">element</field>
   <field type="int">atomtype</field>
   <set>
    <rc><c>Rh</c><c>   1</c></rc>
    <rc><c>Rh</c><c>   1</c></rc>
   </set>
  </array>
  <array name="atomtypes" >
   <dimension dim="1">type</dimension>
   <field type="int">atomspertype</field>
   <field type="string">element</field>
   <field>mass</field>
   <field>valence</field>
   <field type="string">pseudopotential</field>
   <set>
    <rc><c>   2</c><c>Rh</c><c>    102.90600000</c><c>      9.00000000</c><c> PAW_PBE Rh 06Sep2000                   </c></rc>
   </set>
  </array>
 </atominfo>
 <structure name="initialpos" >
  <crystal>
   <varray name="basis" >
    <v>      15.00000000       0.00000000       0.00000000 </v>
    <v>       0.00000000      15.00000000       0.00000000 </v>
    <v>       0.00000000       0.00000000      15.00000000 </v>
   </varray>
   <i name="volume">   3375.00000000 </i>
   <varray name="rec_basis" >
    <v>       0.06666667       0.00000000       0.00000000 </v>
    <v>       0.00000000       0.06666667       0.00000000 </v>
    <v>       0.00000000       0.00000000       0.06666667 </v>
   </varray>
  </crystal>
  <varray name="positions" >
   <v>       0.50000000       0.50000000       0.41281216 </v>
   <v>       0.50000000       0.50000000       0.58718784 </v>
  </varray>
 </structure>
 <calculation>
  <scstep>
   <time name="dav">    0.10    0.10</time>
   <time name="total">    0.33    0.35</time>
   <energy>
    <i name="alphaZ">      1.24949920 </i>
    <i name="ewald">      9.85409906 </i>
    <i name="hartreedc">  -1183.30161038 </i>
    <i name="XCdc">    -38.48491031 </i>
    <i name="pawpsdc">   1003.99267870 </i>
    <i name="pawaedc">   -906.88084544 </i>
    <i name="eentropy">     -0.25660173 </i>
    <i name="bandstr">     -2.72345131 </i>
    <i name="atom">   1233.03520218 </i>
    <i name="e_fr_energy">    116.48405997 </i>
    <i name="e_wo_entrp">    116.74066170 </i>
    <i name="e_0_energy">    116.61236084 </i>
   </energy>
  </scstep>
  <scstep>
   <time name="dav">    0.14    0.15</time>
   <time name="total">    0.14    0.15</time>
   <energy>
    <i name="e_fr_energy">     34.97470415 </i>
    <i name="e_wo_entrp">     35.11343536 </i>
    <i name="e_0_energy">     35.04406975 </i>
   </energy>
  </scstep>
  <scstep>
   <time name="dav">    0.13    0.14</time>
   <time name="total">    0.14    0.14</time>
   <energy>
    <i name="e_fr_energy">     -0.11528426 </i>
    <i name="e_wo_entrp">      0.09015932 </i>
    <i name="e_0_energy">     -0.01256247 </i>
   </energy>
  </scstep>
  <scstep>
   <time name="dav">    0.07    0.08</time>
   <time name="total">    0.07    0.08</time>
   <energy>
    <i name="e_fr_energy">     -1.79447086 </i>
    <i name="e_wo_entrp">     -1.61565386 </i>
    <i name="e_0_energy">     -1.70506236 </i>
   </energy>
  </scstep>
  <scstep>
   <time name="dav">    0.07    0.08</time>
   <time name="total">    0.28    0.29</time>
   <energy>
    <i name="e_fr_energy">     -1.82221286 </i>
    <i name="e_wo_entrp">     -1.64380652 </i>
    <i name="e_0_energy">     -1.73300969 </i>
   </energy>
  </scstep>
  <scstep>
   <time name="diag">    0.08    0.09</time>
   <time name="diis">    0.02    0.03</time>
   <time name="orth">    0.00    0.00</time>
   <time name="total">    0.43    0.45</time>
   <energy>
    <i name="e_fr_energy">     -1.91460192 </i>
    <i name="e_wo_entrp">     -1.87884446 </i>
    <i name="e_0_energy">     -1.89672319 </i>
   </energy>
  </scstep>
  <scstep>
   <time name="diag">    0.03    0.03</time>
   <time name="diis">    0.02    0.02</time>
   <time name="orth">    0.00    0.00</time>
   <time name="total">    0.38    0.40</time>
   <energy>
    <i name="e_fr_energy">     -2.03565105 </i>
    <i name="e_wo_entrp">     -2.01312599 </i>
    <i name="e_0_energy">     -2.02438852 </i>
   </energy>
  </scstep>
  <scstep>
   <time name="diag">    0.03    0.03</time>
   <time name="diis">    0.02    0.02</time>
   <time name="orth">    0.00    0.00</time>
   <time name="total">    0.38    0.39</time>
   <energy>
    <i name="e_fr_energy">     -2.01680140 </i>
    <i name="e_wo_entrp">     -1.99941141 </i>
    <i name="e_0_energy">     -2.00810640 </i>
   </energy>
  </scstep>
  <scstep>
   <time name="diag">    0.03    0.03</time>
   <time name="diis">    0.02    0.02</time>
   <time name="orth">    0.00    0.00</time>
   <time name="total">    0.37    0.39</time>
   <energy>
    <i name="e_fr_energy">     -2.01895654 </i>
    <i name="e_wo_entrp">     -2.00611728 </i>
    <i name="e_0_energy">     -2.01253691 </i>
   </energy>
  </scstep>
  <scstep>
   <time name="diag">    0.03    0.03</time>
   <time name="diis">    0.02    0.02</time>
   <time name="orth">    0.00    0.00</time>
   <time name="total">    0.39    0.39</time>
   <energy>
    <i name="e_fr_energy">     -2.02038147 </i>
    <i name="e_wo_entrp">     -2.00653498 </i>
    <i name="e_0_energy">     -2.01345823 </i>
   </energy>
  </scstep>
  <scstep>
   <time name="diag">    0.03    0.03</time>
   <time name="diis">    0.02    0.02</time>
   <time name="orth">    0.00    0.00</time>
   <time name="total">    0.38    0.38</time>
   <energy>
    <i name="e_fr_energy">     -2.02066426 </i>
    <i name="e_wo_entrp">     -2.00655370 </i>
    <i name="e_0_energy">     -2.01360898 </i>
   </energy>
  </scstep>
  <scstep>
   <time name="diag">    0.03    0.03</time>
   <time name="diis">    0.02    0.02</time>
   <time name="orth">    0.00    0.00</time>
   <time name="total">    0.38    0.39</time>
   <energy>
    <i name="e_fr_energy">     -2.02091613 </i>
    <i name="e_wo_entrp">     -2.00722611 </i>
    <i name="e_0_energy">     -2.01407112 </i>
   </energy>
  </scstep>
  <scstep>
   <time name="diag">    0.03    0.03</time>
   <time name="diis">    0.02    0.02</time>
   <time name="orth">    0.00    0.00</time>
   <time name="total">    0.39    0.39</time>
   <energy>
    <i name="e_fr_energy">     -2.02105834 </i>
    <i name="e_wo_entrp">     -2.00819401 </i>
    <i name="e_0_energy">     -2.01462618 </i>
   </energy>
  </scstep>
  <scstep>
   <time name="diag">    0.03    0.03</time>
   <time name="diis">    0.02    0.02</time>
   <time name="orth">    0.00    0.00</time>
   <time name="total">    0.19    0.20</time>
   <energy>
    <i name="alphaZ">      1.24949920 </i>
    <i name="ewald">      9.85409906 </i>
    <i name="hartreedc">  -1211.96363244 </i>
    <i name="XCdc">    -36.88189918 </i>
    <i name="pawpsdc">   1052.43942824 </i>
    <i name="pawaedc">   -952.09775781 </i>
    <i name="eentropy">     -0.01261583 </i>
    <i name="bandstr">    -97.64341850 </i>
    <i name="atom">   1233.03520218 </i>
    <i name="e_fr_energy">     -2.02109509 </i>
    <i name="e_wo_entrp">     -2.00847925 </i>
    <i name="e_0_energy">     -2.01478717 </i>
   </energy>
  </scstep>
  <dipole>
   <v name="dipole">      0.00000000       0.00000000      -0.00002813 </v>
   <i name="Tr[quadrupol]">  -2027.74017921 </i>
   <i name="Echarged">      0.00000000 </i>
   <i name="Edipol_quadrupol">      0.00000000 </i>
   <i name="Eion">      0.00000000 </i>
  </dipole>
  <structure>
   <crystal>
    <varray name="basis" >
     <v>      15.00000000       0.00000000       0.00000000 </v>
     <v>       0.00000000      15.00000000       0.00000000 </v>
     <v>       0.00000000       0.00000000      15.00000000 </v>
    </varray>
    <i name="volume">   3375.00000000 </i>
    <varray name="rec_basis" >
     <v>       0.06666667       0.00000000       0.00000000 </v>
     <v>       0.00000000       0.06666667       0.00000000 </v>
     <v>       0.00000000       0.00000000       0.06666667 </v>
    </varray>
   </crystal>
   <varray name="positions" >
    <v>       0.50000000       0.50000000       0.41281216 </v>
    <v>       0.50000000       0.50000000       0.58718784 </v>
   </varray>
  </structure>
  <varray name="forces" >
   <v>       0.00000000      -0.00000000       2.25468928 </v>
   <v>      -0.00000000       0.00000000      -2.25468928 </v>
  </varray>
  <energy>
   <i name="e_fr_energy">     -2.02924355 </i>
   <i name="e_wo_entrp">     -2.02293564 </i>
   <i name="e_0_energy">     -0.01261583 </i>
  </energy>
  <time name="totalsc">    4.81    5.06</time>
 </calculation>
 <calculation>
  <scstep>
   <time name="dav">    0.06    0.06</time>
   <time name="total">    0.38    0.40</time>
   <energy>
    <i name="alphaZ">      1.24949920 </i>
    <i name="ewald">     17.21916937 </i>
    <i name="hartreedc">  -1219.26990481 </i>
    <i name="XCdc">    -36.82388481 </i>
    <i name="pawpsdc">   1052.43058286 </i>
    <i name="pawaedc">   -952.09134615 </i>
    <i name="eentropy">     -0.01736444 </i>
    <i name="bandstr">    -97.84066100 </i>
    <i name="atom">   1233.03520218 </i>
    <i name="e_fr_energy">     -2.10870760 </i>
    <i name="e_wo_entrp">     -2.09134316 </i>
    <i name="e_0_energy">     -2.10002538 </i>
   </energy>
  </scstep>
  <scstep>
   <time name="diag">    0.03    0.03</time>
   <time name="diis">    0.02    0.02</time>
   <time name="orth">    0.00    0.00</time>
   <time name="total">    0.37    0.39</time>
   <energy>
    <i name="e_fr_energy">     -2.11675581 </i>
    <i name="e_wo_entrp">     -2.09900977 </i>
    <i name="e_0_energy">     -2.10788279 </i>
   </energy>
  </scstep>
  <scstep>
   <time name="diag">    0.03    0.03</time>
   <time name="diis">    0.03    0.03</time>
   <time name="orth">    0.00    0.00</time>
   <time name="total">    0.39    0.40</time>
   <energy>
    <i name="e_fr_energy">     -2.11813576 </i>
    <i name="e_wo_entrp">     -2.10012479 </i>
    <i name="e_0_energy">     -2.10913028 </i>
   </energy>
  </scstep>
  <scstep>
   <time name="diag">    0.03    0.03</time>
   <time name="diis">    0.02    0.02</time>
   <time name="orth">    0.00    0.00</time>
   <time name="total">    0.19    0.19</time>
   <energy>
    <i name="alphaZ">      1.24949920 </i>
    <i name="ewald">     17.21916937 </i>
    <i name="hartreedc">  -1219.35825099 </i>
    <i name="XCdc">    -36.83845379 </i>
    <i name="pawpsdc">   1053.99991059 </i>
    <i name="pawaedc">   -953.69259788 </i>
    <i name="eentropy">     -0.01828148 </i>
    <i name="bandstr">    -97.71437940 </i>
    <i name="atom">   1233.03520218 </i>
    <i name="e_fr_energy">     -2.11818220 </i>
    <i name="e_wo_entrp">     -2.09990072 </i>
    <i name="e_0_energy">     -2.10904146 </i>
   </energy>
  </scstep>
  <dipole>
   <v name="dipole">      0.00000000       0.00000000      -0.00001343 </v>
   <i name="Tr[quadrupol]">  -2027.74012053 </i>
   <i name="Echarged">      0.00000000 </i>
   <i name="Edipol_quadrupol">      0.00000000 </i>
   <i name="Eion">      0.00000000 </i>
  </dipole>
  <structure>
   <crystal>
    <varray name="basis" >
     <v>      15.00000000       0.00000000       0.00000000 </v>
     <v>       0.00000000      15.00000000       0.00000000 </v>
     <v>       0.00000000       0.00000000      15.00000000 </v>
    </varray>
    <i name="volume">   3375.00000000 </i>
    <varray name="rec_basis" >
     <v>       0.06666667       0.00000000       0.00000000 </v>
     <v>       0.00000000       0.06666667       0.00000000 </v>
     <v>       0.00000000       0.00000000       0.06666667 </v>
    </varray>
   </crystal>
   <varray name="positions" >
    <v>       0.50000000       0.50000000       0.41426246 </v>
    <v>       0.50000000       0.50000000       0.58573754 </v>
   </varray>
  </structure>
  <varray name="forces" >
   <v>       0.00000000      -0.00000000       2.14942326 </v>
   <v>       0.00000000       0.00000000      -2.14942326 </v>
  </varray>
  <energy>
   <i name="e_fr_energy">     -2.12498675 </i>
   <i name="e_wo_entrp">     -2.11584601 </i>
   <i name="e_0_energy">     -0.01828148 </i>
  </energy>
  <time name="totalsc">    1.86    1.99</time>
 </calculation>
 <calculation>
  <scstep>
   <time name="dav">    0.06    0.06</time>
   <time name="total">    0.39    0.40</time>
   <energy>
    <i name="alphaZ">      1.24949920 </i>
    <i name="ewald">     32.37665718 </i>
    <i name="hartreedc">  -1234.22046745 </i>
    <i name="XCdc">    -36.71464855 </i>
    <i name="pawpsdc">   1054.68228613 </i>
    <i name="pawaedc">   -954.37258553 </i>
    <i name="eentropy">     -0.03313978 </i>
    <i name="bandstr">    -98.25817307 </i>
    <i name="atom">   1233.03520218 </i>
    <i name="e_fr_energy">     -2.25536970 </i>
    <i name="e_wo_entrp">     -2.22222991 </i>
    <i name="e_0_energy">     -2.23879981 </i>
   </energy>
  </scstep>
  <scstep>
   <time name="diag">    0.03    0.03</time>
   <time name="diis">    0.02    0.02</time>
   <time name="orth">    0.00    0.00</time>
   <time name="total">    0.38    0.39</time>
   <energy>
    <i name="e_fr_energy">     -2.28648747 </i>
    <i name="e_wo_entrp">     -2.25186277 </i>
    <i name="e_0_energy">     -2.26917512 </i>
   </energy>
  </scstep>
  <scstep>
   <time name="diag">    0.03    0.03</time>
   <time name="diis">    0.03    0.04</time>
   <time name="orth">    0.00    0.00</time>
   <time name="total">    0.39    0.41</time>
   <energy>
    <i name="e_fr_energy">     -2.29190550 </i>
    <i name="e_wo_entrp">     -2.25617542 </i>
    <i name="e_0_energy">     -2.27404046 </i>
   </energy>
  </scstep>
  <scstep>
   <time name="diag">    0.03    0.03</time>
   <time name="diis">    0.02    0.02</time>
   <time name="orth">    0.00    0.00</time>
   <time name="total">    0.38    0.39</time>
   <energy>
    <i name="e_fr_energy">     -2.29201715 </i>
    <i name="e_wo_entrp">     -2.25504401 </i>
    <i name="e_0_energy">     -2.27353058 </i>
   </energy>
  </scstep>
  <scstep>
   <time name="diag">    0.03    0.03</time>
   <time name="diis">    0.02    0.02</time>
   <time name="orth">    0.00    0.00</time>
   <time name="total">    0.37    0.38</time>
   <energy>
    <i name="e_fr_energy">     -2.29254380 </i>
    <i name="e_wo_entrp">     -2.25451023 </i>
    <i name="e_0_energy">     -2.27352701 </i>
   </energy>
  </scstep>
  <scstep>
   <time name="diag">    0.03    0.03</time>
   <time name="diis">    0.02    0.02</time>
   <time name="orth">    0.00    0.00</time>
   <time name="total">    0.37    0.38</time>
   <energy>
    <i name="e_fr_energy">     -2.29270608 </i>
    <i name="e_wo_entrp">     -2.25457641 </i>
    <i name="e_0_energy">     -2.27364125 </i>
   </energy>
  </scstep>
  <scstep>
   <time name="diag">    0.03    0.03</time>
   <time name="diis">    0.02    0.02</time>
   <time name="orth">    0.00    0.00</time>
   <time name="total">    0.19    0.20</time>
   <energy>
    <i name="alphaZ">      1.24949920 </i>
    <i name="ewald">     32.37665718 </i>
    <i name="hartreedc">  -1234.06837513 </i>
    <i name="XCdc">    -36.75486972 </i>
    <i name="pawpsdc">   1060.45965872 </i>
    <i name="pawaedc">   -960.23447462 </i>
    <i name="eentropy">     -0.03801278 </i>
    <i name="bandstr">    -98.31801688 </i>
    <i name="atom">   1233.03520218 </i>
    <i name="e_fr_energy">     -2.29273185 </i>
    <i name="e_wo_entrp">     -2.25471907 </i>
    <i name="e_0_energy">     -2.27372546 </i>
   </energy>
  </scstep>
  <dipole>
   <v name="dipole">      0.00000000       0.00000000      -2.79867795 </v>
   <i name="Tr[quadrupol]">  -2065.34322044 </i>
   <i name="Echarged">      0.00000000 </i>
   <i name="Edipol_quadrupol">      0.00000000 </i>
   <i name="Eion">      0.00000000 </i>
  </dipole>
  <structure>
   <crystal>
    <varray name="basis" >
     <v>      15.00000000       0.00000000       0.00000000 </v>
     <v>       0.00000000      15.00000000       0.00000000 </v>
     <v>       0.00000000       0.00000000      15.00000000 </v>
    </varray>
    <i name="volume">   3375.00000000 </i>
    <varray name="rec_basis" >
     <v>       0.06666667       0.00000000       0.00000000 </v>
     <v>       0.00000000       0.06666667       0.00000000 </v>
     <v>       0.00000000       0.00000000       0.06666667 </v>
    </varray>
   </crystal>
   <varray name="positions" >
    <v>       0.50000000       0.50000000       0.41709534 </v>
    <v>       0.50000000       0.50000000       0.58290466 </v>
   </varray>
  </structure>
  <varray name="forces" >
   <v>      -0.00000000       0.00000000       1.86521052 </v>
   <v>       0.00000000      -0.00000000      -1.86521052 </v>
  </varray>
  <energy>
   <i name="e_fr_energy">     -2.06578169 </i>
   <i name="e_wo_entrp">     -2.04677530 </i>
   <i name="e_0_energy">     -0.03801278 </i>
  </energy>
  <time name="totalsc">    2.99    3.14</time>
 </calculation>
 <calculation>
  <scstep>
   <time name="dav">    0.06    0.06</time>
   <time name="total">    0.38    0.40</time>
   <energy>
    <i name="alphaZ">      1.24949920 </i>
    <i name="ewald">     55.89610508 </i>
    <i name="hartreedc">  -1256.82192259 </i>
    <i name="XCdc">    -36.55348391 </i>
    <i name="pawpsdc">   1060.50280548 </i>
    <i name="pawaedc">   -960.27713140 </i>
    <i name="eentropy">     -0.07471051 </i>
    <i name="bandstr">    -99.36360336 </i>
    <i name="atom">   1233.03520218 </i>
    <i name="e_fr_energy">     -2.40723982 </i>
    <i name="e_wo_entrp">     -2.33252932 </i>
    <i name="e_0_energy">     -2.36988457 </i>
   </energy>
  </scstep>
  <scstep>
   <time name="diag">    0.03    0.03</time>
   <time name="diis">    0.02    0.02</time>
   <time name="orth">    0.00    0.00</time>
   <time name="total">    0.37    0.39</time>
   <energy>
    <i name="e_fr_energy">     -2.47147125 </i>
    <i name="e_wo_entrp">     -2.39193821 </i>
    <i name="e_0_energy">     -2.43170473 </i>
   </energy>
  </scstep>
  <scstep>
   <time name="diag">    0.03    0.03</time>
   <time name="diis">    0.03    0.03</time>
   <time name="orth">    0.00    0.00</time>
   <time name="total">    0.38    0.39</time>
   <energy>
    <i name="e_fr_energy">     -2.48300681 </i>
    <i name="e_wo_entrp">     -2.40106770 </i>
    <i name="e_0_energy">     -2.44203726 </i>
   </energy>
  </scstep>
  <scstep>
   <time name="diag">    0.03    0.03</time>
   <time name="diis">    0.02    0.02</time>
   <time name="orth">    0.00    0.00</time>
   <time name="total">    0.37    0.39</time>
   <energy>
    <i name="e_fr_energy">     -2.48375262 </i>
    <i name="e_wo_entrp">     -2.40050864 </i>
    <i name="e_0_energy">     -2.44213063 </i>
   </energy>
  </scstep>
  <scstep>
   <time name="diag">    0.03    0.03</time>
   <time name="diis">    0.02    0.02</time>
   <time name="orth">    0.00    0.00</time>
   <time name="total">    0.38    0.38</time>
   <energy>
    <i name="e_fr_energy">     -2.48494707 </i>
    <i name="e_wo_entrp">     -2.40012647 </i>
    <i name="e_0_energy">     -2.44253677 </i>
   </energy>
  </scstep>
  <scstep>
   <time name="diag">    0.03    0.03</time>
   <time name="diis">    0.02    0.02</time>
   <time name="orth">    0.00    0.00</time>
   <time name="total">    0.37    0.38</time>
   <energy>
    <i name="e_fr_energy">     -2.48527610 </i>
    <i name="e_wo_entrp">     -2.40023463 </i>
    <i name="e_0_energy">     -2.44275536 </i>
   </energy>
  </scstep>
  <scstep>
   <time name="diag">    0.03    0.03</time>
   <time name="diis">    0.02    0.02</time>
   <time name="orth">    0.00    0.00</time>
   <time name="total">    0.19    0.20</time>
   <energy>
    <i name="alphaZ">      1.24949920 </i>
    <i name="ewald">     55.89610508 </i>
    <i name="hartreedc">  -1254.83697895 </i>
    <i name="XCdc">    -36.66120621 </i>
    <i name="pawpsdc">   1067.58894122 </i>
    <i name="pawaedc">   -967.72130278 </i>
    <i name="eentropy">     -0.08499366 </i>
    <i name="bandstr">   -100.95058790 </i>
    <i name="atom">   1233.03520218 </i>
    <i name="e_fr_energy">     -2.48532184 </i>
    <i name="e_wo_entrp">     -2.40032818 </i>
    <i name="e_0_energy">     -2.44282501 </i>
   </energy>
  </scstep>
  <dipole>
   <v name="dipole">      0.00000000       0.00000000       0.09005984 </v>
   <i name="Tr[quadrupol]">  -2028.12259326 </i>
   <i name="Echarged">      0.00000000 </i>
   <i name="Edipol_quadrupol">      0.00000000 </i>
   <i name="Eion">      0.00000000 </i>
  </dipole>
  <structure>
   <crystal>
    <varray name="basis" >
     <v>      15.00000000       0.00000000       0.00000000 </v>
     <v>       0.00000000      15.00000000       0.00000000 </v>
     <v>       0.00000000       0.00000000      15.00000000 </v>
    </varray>
    <i name="volume">   3375.00000000 </i>
    <varray name="rec_basis" >
     <v>       0.06666667       0.00000000       0.00000000 </v>
     <v>       0.00000000       0.06666667       0.00000000 </v>
     <v>       0.00000000       0.00000000       0.06666667 </v>
    </varray>
   </crystal>
   <varray name="positions" >
    <v>       0.50000000       0.50000000       0.42112799 </v>
    <v>       0.50000000       0.50000000       0.57887201 </v>
   </varray>
  </structure>
  <varray name="forces" >
   <v>       0.00000000      -0.00000000       1.18051444 </v>
   <v>      -0.00000000       0.00000000      -1.18051444 </v>
  </varray>
  <energy>
   <i name="e_fr_energy">     -2.48834037 </i>
   <i name="e_wo_entrp">     -2.44584354 </i>
   <i name="e_0_energy">     -0.08499366 </i>
  </energy>
  <time name="totalsc">    2.98    3.13</time>
 </calculation>
 <calculation>
  <scstep>
   <time name="dav">    0.06    0.06</time>
   <time name="total">    0.39    0.40</time>
   <energy>
    <i name="alphaZ">      1.24949920 </i>
    <i name="ewald">     87.27212216 </i>
    <i name="hartreedc">  -1284.48896236 </i>
    <i name="XCdc">    -36.38719940 </i>
    <i name="pawpsdc">   1067.67864191 </i>
    <i name="pawaedc">   -967.81317053 </i>
    <i name="eentropy">     -0.13556180 </i>
    <i name="bandstr">   -102.86167928 </i>
    <i name="atom">   1233.03520218 </i>
    <i name="e_fr_energy">     -2.45110793 </i>
    <i name="e_wo_entrp">     -2.31554613 </i>
    <i name="e_0_energy">     -2.38332703 </i>
   </energy>
  </scstep>
  <scstep>
   <time name="diag">    0.03    0.03</time>
   <time name="diis">    0.02    0.02</time>
   <time name="orth">    0.00    0.00</time>
   <time name="total">    0.37    0.42</time>
   <energy>
    <i name="e_fr_energy">     -2.54655851 </i>
    <i name="e_wo_entrp">     -2.40475841 </i>
    <i name="e_0_energy">     -2.47565846 </i>
   </energy>
  </scstep>
  <scstep>
   <time name="diag">    0.03    0.03</time>
   <time name="diis">    0.03    0.03</time>
   <time name="orth">    0.00    0.00</time>
   <time name="total">    0.38    0.39</time>
   <energy>
    <i name="e_fr_energy">     -2.56052708 </i>
    <i name="e_wo_entrp">     -2.41908603 </i>
    <i name="e_0_energy">     -2.48980655 </i>
   </energy>
  </scstep>
  <scstep>
   <time name="diag">    0.03    0.03</time>
   <time name="diis">    0.02    0.02</time>
   <time name="orth">    0.00    0.00</time>
   <time name="total">    0.38    0.39</time>
   <energy>
    <i name="e_fr_energy">     -2.56370719 </i>
    <i name="e_wo_entrp">     -2.42798211 </i>
    <i name="e_0_energy">     -2.49584465 </i>
   </energy>
  </scstep>
  <scstep>
   <time name="diag">    0.03    0.03</time>
   <time name="diis">    0.02    0.02</time>
   <time name="orth">    0.00    0.00</time>
   <time name="total">    0.37    0.38</time>
   <energy>
    <i name="e_fr_energy">     -2.56473342 </i>
    <i name="e_wo_entrp">     -2.43202681 </i>
    <i name="e_0_energy">     -2.49838011 </i>
   </energy>
  </scstep>
  <scstep>
   <time name="diag">    0.03    0.03</time>
   <time name="diis">    0.02    0.02</time>
   <time name="orth">    0.00    0.00</time>
   <time name="total">    0.37    0.38</time>
   <energy>
    <i name="e_fr_energy">     -2.55138102 </i>
    <i name="e_wo_entrp">     -2.41463467 </i>
    <i name="e_0_energy">     -2.48300785 </i>
   </energy>
  </scstep>
  <scstep>
   <time name="diag">    0.03    0.03</time>
   <time name="diis">    0.02    0.02</time>
   <time name="orth">    0.00    0.00</time>
   <time name="total">    0.38    0.39</time>
   <energy>
    <i name="e_fr_energy">     -2.55571733 </i>
    <i name="e_wo_entrp">     -2.41611738 </i>
    <i name="e_0_energy">     -2.48591736 </i>
   </energy>
  </scstep>
  <scstep>
   <time name="diag">    0.03    0.03</time>
   <time name="diis">    0.02    0.02</time>
   <time name="orth">    0.00    0.00</time>
   <time name="total">    0.37    0.39</time>
   <energy>
    <i name="e_fr_energy">     -2.56068030 </i>
    <i name="e_wo_entrp">     -2.42036587 </i>
    <i name="e_0_energy">     -2.49052308 </i>
   </energy>
  </scstep>
  <scstep>
   <time name="diag">    0.03    0.03</time>
   <time name="diis">    0.02    0.02</time>
   <time name="orth">    0.00    0.00</time>
   <time name="total">    0.37    0.39</time>
   <energy>
    <i name="e_fr_energy">     -2.56189008 </i>
    <i name="e_wo_entrp">     -2.42146205 </i>
    <i name="e_0_energy">     -2.49167606 </i>
   </energy>
  </scstep>
  <scstep>
   <time name="diag">    0.03    0.03</time>
   <time name="diis">    0.02    0.02</time>
   <time name="orth">    0.00    0.00</time>
   <time name="total">    0.38    0.39</time>
   <energy>
    <i name="e_fr_energy">     -2.56204044 </i>
    <i name="e_wo_entrp">     -2.42119942 </i>
    <i name="e_0_energy">     -2.49161993 </i>
   </energy>
  </scstep>
  <scstep>
   <time name="diag">    0.03    0.03</time>
   <time name="diis">    0.02    0.02</time>
   <time name="orth">    0.00    0.00</time>
   <time name="total">    0.18    0.19</time>
   <energy>
    <i name="alphaZ">      1.24949920 </i>
    <i name="ewald">     87.27212216 </i>
    <i name="hartreedc">  -1278.63088626 </i>
    <i name="XCdc">    -36.58409721 </i>
    <i name="pawpsdc">   1074.87286444 </i>
    <i name="pawaedc">   -975.93604697 </i>
    <i name="eentropy">     -0.14097155 </i>
    <i name="bandstr">   -107.69972567 </i>
    <i name="atom">   1233.03520218 </i>
    <i name="e_fr_energy">     -2.56203969 </i>
    <i name="e_wo_entrp">     -2.42106814 </i>
    <i name="e_0_energy">     -2.49155391 </i>
   </energy>
  </scstep>
  <dipole>
   <v name="dipole">      0.00000000       0.00000000       0.00089115 </v>
   <i name="Tr[quadrupol]">  -2027.62642898 </i>
   <i name="Echarged">      0.00000000 </i>
   <i name="Edipol_quadrupol">      0.00000000 </i>
   <i name="Eion">      0.00000000 </i>
  </dipole>
  <structure>
   <crystal>
    <varray name="basis" >
     <v>      15.00000000       0.00000000       0.00000000 </v>
     <v>       0.00000000      15.00000000       0.00000000 </v>
     <v>       0.00000000       0.00000000      15.00000000 </v>
    </varray>
    <i name="volume">   3375.00000000 </i>
    <varray name="rec_basis" >
     <v>       0.06666667       0.00000000       0.00000000 </v>
     <v>       0.00000000       0.06666667       0.00000000 </v>
     <v>       0.00000000       0.00000000       0.06666667 </v>
    </varray>
   </crystal>
   <varray name="positions" >
    <v>       0.50000000       0.50000000       0.42591999 </v>
    <v>       0.50000000       0.50000000       0.57408001 </v>
   </varray>
  </structure>
  <varray name="forces" >
   <v>      -0.00000000      -0.00000000      -0.35253091 </v>
   <v>       0.00000000       0.00000000       0.35253091 </v>
  </varray>
  <energy>
   <i name="e_fr_energy">     -2.56413389 </i>
   <i name="e_wo_entrp">     -2.49364812 </i>
   <i name="e_0_energy">     -0.14097155 </i>
  </energy>
  <time name="totalsc">    4.48    4.71</time>
 </calculation>
 <calculation>
  <scstep>
   <time name="dav">    0.06    0.06</time>
   <time name="total">    0.39    0.40</time>
   <energy>
    <i name="alphaZ">      1.24949920 </i>
    <i name="ewald">     86.48176313 </i>
    <i name="hartreedc">  -1277.87242534 </i>
    <i name="XCdc">    -36.59099950 </i>
    <i name="pawpsdc">   1074.90612528 </i>
    <i name="pawaedc">   -975.98091322 </i>
    <i name="eentropy">     -0.14030793 </i>
    <i name="bandstr">   -107.65101233 </i>
    <i name="atom">   1233.03520218 </i>
    <i name="e_fr_energy">     -2.56306854 </i>
    <i name="e_wo_entrp">     -2.42276061 </i>
    <i name="e_0_energy">     -2.49291458 </i>
   </energy>
  </scstep>
  <scstep>
   <time name="diag">    0.03    0.03</time>
   <time name="diis">    0.02    0.02</time>
   <time name="orth">    0.00    0.00</time>
   <time name="total">    0.38    0.39</time>
   <energy>
    <i name="e_fr_energy">     -2.56311393 </i>
    <i name="e_wo_entrp">     -2.42284150 </i>
    <i name="e_0_energy">     -2.49297771 </i>
   </energy>
  </scstep>
  <scstep>
   <time name="diag">    0.03    0.03</time>
   <time name="diis">    0.01    0.01</time>
   <time name="orth">    0.00    0.00</time>
   <time name="total">    0.37    0.38</time>
   <energy>
    <i name="e_fr_energy">     -2.56311580 </i>
    <i name="e_wo_entrp">     -2.42270800 </i>
    <i name="e_0_energy">     -2.49291190 </i>
   </energy>
  </scstep>
  <scstep>
   <time name="diag">    0.03    0.03</time>
   <time name="diis">    0.01    0.01</time>
   <time name="orth">    0.00    0.00</time>
   <time name="total">    0.18    0.19</time>
   <energy>
    <i name="alphaZ">      1.24949920 </i>
    <i name="ewald">     86.48176313 </i>
    <i name="hartreedc">  -1277.96932191 </i>
    <i name="XCdc">    -36.58768295 </i>
    <i name="pawpsdc">   1074.83915901 </i>
    <i name="pawaedc">   -975.90525786 </i>
    <i name="eentropy">     -0.14050507 </i>
    <i name="bandstr">   -107.56597681 </i>
    <i name="atom">   1233.03520218 </i>
    <i name="e_fr_energy">     -2.56312107 </i>
    <i name="e_wo_entrp">     -2.42261601 </i>
    <i name="e_0_energy">     -2.49286854 </i>
   </energy>
  </scstep>
  <dipole>
   <v name="dipole">      0.00000000       0.00000000       0.00020270 </v>
   <i name="Tr[quadrupol]">  -2027.62412848 </i>
   <i name="Echarged">      0.00000000 </i>
   <i name="Edipol_quadrupol">      0.00000000 </i>
   <i name="Eion">      0.00000000 </i>
  </dipole>
  <structure>
   <crystal>
    <varray name="basis" >
     <v>      15.00000000       0.00000000       0.00000000 </v>
     <v>       0.00000000      15.00000000       0.00000000 </v>
     <v>       0.00000000       0.00000000      15.00000000 </v>
    </varray>
    <i name="volume">   3375.00000000 </i>
    <varray name="rec_basis" >
     <v>       0.06666667       0.00000000       0.00000000 </v>
     <v>       0.00000000       0.06666667       0.00000000 </v>
     <v>       0.00000000       0.00000000       0.06666667 </v>
    </varray>
   </crystal>
   <varray name="positions" >
    <v>       0.50000000       0.50000000       0.42580661 </v>
    <v>       0.50000000       0.50000000       0.57419339 </v>
   </varray>
  </structure>
  <varray name="forces" >
   <v>       0.00000000      -0.00000000      -0.27079731 </v>
   <v>      -0.00000000       0.00000000       0.27079731 </v>
  </varray>
  <energy>
   <i name="e_fr_energy">     -2.56523647 </i>
   <i name="e_wo_entrp">     -2.49498393 </i>
   <i name="e_0_energy">     -0.14050507 </i>
  </energy>
  <time name="totalsc">    1.84    1.97</time>
 </calculation>
 <calculation>
  <scstep>
   <time name="dav">    0.06    0.06</time>
   <time name="total">    0.39    0.41</time>
   <energy>
    <i name="alphaZ">      1.24949920 </i>
    <i name="ewald">     84.48821291 </i>
    <i name="hartreedc">  -1276.09909991 </i>
    <i name="XCdc">    -36.60448077 </i>
    <i name="pawpsdc">   1074.82635536 </i>
    <i name="pawaedc">   -975.89269633 </i>
    <i name="eentropy">     -0.13819163 </i>
    <i name="bandstr">   -107.42936238 </i>
    <i name="atom">   1233.03520218 </i>
    <i name="e_fr_energy">     -2.56456137 </i>
    <i name="e_wo_entrp">     -2.42636974 </i>
    <i name="e_0_energy">     -2.49546556 </i>
   </energy>
  </scstep>
  <scstep>
   <time name="diag">    0.03    0.03</time>
   <time name="diis">    0.02    0.02</time>
   <time name="orth">    0.00    0.00</time>
   <time name="total">    0.38    0.39</time>
   <energy>
    <i name="e_fr_energy">     -2.56492442 </i>
    <i name="e_wo_entrp">     -2.42724076 </i>
    <i name="e_0_energy">     -2.49608259 </i>
   </energy>
  </scstep>
  <scstep>
   <time name="diag">    0.03    0.03</time>
   <time name="diis">    0.03    0.03</time>
   <time name="orth">    0.00    0.00</time>
   <time name="total">    0.38    0.39</time>
   <energy>
    <i name="e_fr_energy">     -2.56504914 </i>
    <i name="e_wo_entrp">     -2.42735682 </i>
    <i name="e_0_energy">     -2.49620298 </i>
   </energy>
  </scstep>
  <scstep>
   <time name="diag">    0.03    0.03</time>
   <time name="diis">    0.02    0.02</time>
   <time name="orth">    0.00    0.00</time>
   <time name="total">    0.37    0.38</time>
   <energy>
    <i name="e_fr_energy">     -2.56486845 </i>
    <i name="e_wo_entrp">     -2.42728510 </i>
    <i name="e_0_energy">     -2.49607677 </i>
   </energy>
  </scstep>
  <scstep>
   <time name="diag">    0.03    0.03</time>
   <time name="diis">    0.02    0.02</time>
   <time name="orth">    0.00    0.00</time>
   <time name="total">    0.37    0.38</time>
   <energy>
    <i name="e_fr_energy">     -2.56388337 </i>
    <i name="e_wo_entrp">     -2.42580149 </i>
    <i name="e_0_energy">     -2.49484243 </i>
   </energy>
  </scstep>
  <scstep>
   <time name="diag">    0.03    0.03</time>
   <time name="diis">    0.02    0.02</time>
   <time name="orth">    0.00    0.00</time>
   <time name="total">    0.37    0.38</time>
   <energy>
    <i name="e_fr_energy">     -2.56469312 </i>
    <i name="e_wo_entrp">     -2.42644686 </i>
    <i name="e_0_energy">     -2.49556999 </i>
   </energy>
  </scstep>
  <scstep>
   <time name="diag">    0.03    0.03</time>
   <time name="diis">    0.02    0.02</time>
   <time name="orth">    0.00    0.00</time>
   <time name="total">    0.37    0.39</time>
   <energy>
    <i name="e_fr_energy">     -2.56494487 </i>
    <i name="e_wo_entrp">     -2.42669009 </i>
    <i name="e_0_energy">     -2.49581748 </i>
   </energy>
  </scstep>
  <scstep>
   <time name="diag">    0.03    0.03</time>
   <time name="diis">    0.02    0.02</time>
   <time name="orth">    0.00    0.00</time>
   <time name="total">    0.19    0.20</time>
   <energy>
    <i name="alphaZ">      1.24949920 </i>
    <i name="ewald">     84.48821291 </i>
    <i name="hartreedc">  -1276.53504432 </i>
    <i name="XCdc">    -36.59219799 </i>
    <i name="pawpsdc">   1074.22384055 </i>
    <i name="pawaedc">   -975.22696109 </i>
    <i name="eentropy">     -0.13819492 </i>
    <i name="bandstr">   -107.06931474 </i>
    <i name="atom">   1233.03520218 </i>
    <i name="e_fr_energy">     -2.56495823 </i>
    <i name="e_wo_entrp">     -2.42676331 </i>
    <i name="e_0_energy">     -2.49586077 </i>
   </energy>
  </scstep>
  <dipole>
   <v name="dipole">      0.00000000       0.00000000       0.00008108 </v>
   <i name="Tr[quadrupol]">  -2027.63211109 </i>
   <i name="Echarged">      0.00000000 </i>
   <i name="Edipol_quadrupol">      0.00000000 </i>
   <i name="Eion">      0.00000000 </i>
  </dipole>
  <structure>
   <crystal>
    <varray name="basis" >
     <v>      15.00000000       0.00000000       0.00000000 </v>
     <v>       0.00000000      15.00000000       0.00000000 </v>
     <v>       0.00000000       0.00000000      15.00000000 </v>
    </varray>
    <i name="volume">   3375.00000000 </i>
    <varray name="rec_basis" >
     <v>       0.06666667       0.00000000       0.00000000 </v>
     <v>       0.00000000       0.06666667       0.00000000 </v>
     <v>       0.00000000       0.00000000       0.06666667 </v>
    </varray>
   </crystal>
   <varray name="positions" >
    <v>       0.50000000       0.50000000       0.42551904 </v>
    <v>       0.50000000       0.50000000       0.57448096 </v>
   </varray>
  </structure>
  <varray name="forces" >
   <v>      -0.00000000      -0.00000000      -0.15949992 </v>
   <v>       0.00000000       0.00000000       0.15949992 </v>
  </varray>
  <energy>
   <i name="e_fr_energy">     -2.56712845 </i>
   <i name="e_wo_entrp">     -2.49803099 </i>
   <i name="e_0_energy">     -0.13819492 </i>
  </energy>
  <time name="totalsc">    3.35    3.52</time>
 </calculation>
 <calculation>
  <scstep>
   <time name="dav">    0.06    0.06</time>
   <time name="total">    0.38    0.40</time>
   <energy>
    <i name="alphaZ">      1.24949920 </i>
    <i name="ewald">     81.80847288 </i>
    <i name="hartreedc">  -1274.02031643 </i>
    <i name="XCdc">    -36.61474063 </i>
    <i name="pawpsdc">   1074.18996286 </i>
    <i name="pawaedc">   -975.19141873 </i>
    <i name="eentropy">     -0.13479347 </i>
    <i name="bandstr">   -106.88694871 </i>
    <i name="atom">   1233.03520218 </i>
    <i name="e_fr_energy">     -2.56508085 </i>
    <i name="e_wo_entrp">     -2.43028738 </i>
    <i name="e_0_energy">     -2.49768412 </i>
   </energy>
  </scstep>
  <scstep>
   <time name="diag">    0.03    0.03</time>
   <time name="diis">    0.02    0.02</time>
   <time name="orth">    0.00    0.01</time>
   <time name="total">    0.38    0.40</time>
   <energy>
    <i name="e_fr_energy">     -2.56570763 </i>
    <i name="e_wo_entrp">     -2.43167440 </i>
    <i name="e_0_energy">     -2.49869101 </i>
   </energy>
  </scstep>
  <scstep>
   <time name="diag">    0.03    0.03</time>
   <time name="diis">    0.03    0.03</time>
   <time name="orth">    0.00    0.00</time>
   <time name="total">    0.38    0.39</time>
   <energy>
    <i name="e_fr_energy">     -2.56577481 </i>
    <i name="e_wo_entrp">     -2.43153636 </i>
    <i name="e_0_energy">     -2.49865559 </i>
   </energy>
  </scstep>
  <scstep>
   <time name="diag">    0.03    0.03</time>
   <time name="diis">    0.02    0.02</time>
   <time name="orth">    0.00    0.00</time>
   <time name="total">    0.18    0.19</time>
   <energy>
    <i name="alphaZ">      1.24949920 </i>
    <i name="ewald">     81.80847288 </i>
    <i name="hartreedc">  -1274.57098274 </i>
    <i name="XCdc">    -36.60049443 </i>
    <i name="pawpsdc">   1074.16283101 </i>
    <i name="pawaedc">   -975.10055043 </i>
    <i name="eentropy">     -0.13476120 </i>
    <i name="bandstr">   -106.41499920 </i>
    <i name="atom">   1233.03520218 </i>
    <i name="e_fr_energy">     -2.56578273 </i>
    <i name="e_wo_entrp">     -2.43102153 </i>
    <i name="e_0_energy">     -2.49840213 </i>
   </energy>
  </scstep>
  <dipole>
   <v name="dipole">      0.00000000       0.00000000       0.00005643 </v>
   <i name="Tr[quadrupol]">  -2027.63646552 </i>
   <i name="Echarged">      0.00000000 </i>
   <i name="Edipol_quadrupol">      0.00000000 </i>
   <i name="Eion">      0.00000000 </i>
  </dipole>
  <structure>
   <crystal>
    <varray name="basis" >
     <v>      15.00000000       0.00000000       0.00000000 </v>
     <v>       0.00000000      15.00000000       0.00000000 </v>
     <v>       0.00000000       0.00000000      15.00000000 </v>
    </varray>
    <i name="volume">   3375.00000000 </i>
    <varray name="rec_basis" >
     <v>       0.06666667       0.00000000       0.00000000 </v>
     <v>       0.00000000       0.06666667       0.00000000 </v>
     <v>       0.00000000       0.00000000       0.06666667 </v>
    </varray>
   </crystal>
   <varray name="positions" >
    <v>       0.50000000       0.50000000       0.42512888 </v>
    <v>       0.50000000       0.50000000       0.57487112 </v>
   </varray>
  </structure>
  <varray name="forces" >
   <v>       0.00000000       0.00000000       0.00490838 </v>
   <v>      -0.00000000      -0.00000000      -0.00490838 </v>
  </varray>
  <energy>
   <i name="e_fr_energy">     -2.56803003 </i>
   <i name="e_wo_entrp">     -2.50064943 </i>
   <i name="e_0_energy">     -0.13476120 </i>
  </energy>
  <time name="totalsc">    1.85    1.98</time>
  <eigenvalues>
   <array>
    <dimension dim="1">band</dimension>
    <dimension dim="2">kpoint</dimension>
    <dimension dim="3">spin</dimension>
    <field>eigene</field>
    <field>occ</field>
    <set>
     <set comment="spin 1">
      <set comment="kpoint 1">
       <r>   -8.7925    1.0000 </r>
       <r>   -8.0036    1.0000 </r>
       <r>   -8.0036    1.0000 </r>
       <r>   -6.1897    1.0000 </r>
       <r>   -6.1895    1.0000 </r>
       <r>   -5.5699    1.0000 </r>
       <r>   -5.5697    1.0000 </r>
       <r>   -5.5624    1.0000 </r>
       <r>   -5.5624    1.0000 </r>
       <r>   -5.3660    1.0000 </r>
       <r>   -4.8679    1.0000 </r>
       <r>   -2.8157    0.0000 </r>
       <r>   -1.1074    0.0000 </r>
       <r>   -1.1074    0.0000 </r>
       <r>   -0.4826    0.0000 </r>
       <r>    0.0982    0.0000 </r>
      </set>
     </set>
     <set comment="spin 2">
      <set comment="kpoint 1">
       <r>   -6.6197    1.0000 </r>
       <r>   -5.7269    1.0000 </r>
       <r>   -5.7269    1.0000 </r>
       <r>   -5.0190    1.0000 </r>
       <r>   -5.0184    1.0000 </r>
       <r>   -4.3445    0.7976 </r>
       <r>   -4.3439    0.7962 </r>
       <r>   -4.1931    0.4061 </r>
       <r>   -3.1122    0.0000 </r>
       <r>   -3.0647    0.0000 </r>
       <r>   -3.0647    0.0000 </r>
       <r>   -2.0296    0.0000 </r>
       <r>   -0.7399    0.0000 </r>
       <r>   -0.7399    0.0000 </r>
       <r>   -0.2404    0.0000 </r>
       <r>    0.2242    0.0000 </r>
      </set>
     </set>
    </set>
   </array>
  </eigenvalues>
  <separator name="orbital magnetization" >
   <v name="MAGDIPOLOUT">      0.00000000      0.00000000      0.00000000</v>
  </separator>
  <dos>
   <i name="efermi">     -4.22671953 </i>
   <total>
    <array>
     <dimension dim="1">gridpoints</dimension>
     <dimension dim="2">spin</dimension>
     <field>energy</field>
     <field>total</field>
     <field>integrated</field>
     <set>
      <set comment="spin 1">
       <r>   -10.7925     0.0000     0.0000 </r>
       <r>   -10.7492     0.0000     0.0000 </r>
       <r>   -10.7058     0.0000     0.0000 </r>
       <r>   -10.6624     0.0000     0.0000 </r>
       <r>   -10.6190     0.0000     0.0000 </r>
       <r>   -10.5756     0.0000     0.0000 </r>
       <r>   -10.5322     0.0000     0.0000 </r>
       <r>   -10.4888     0.0000     0.0000 </r>
       <r>   -10.4454     0.0000     0.0000 </r>
       <r>   -10.4020     0.0000     0.0000 </r>
       <r>   -10.3587     0.0000     0.0000 </r>
       <r>   -10.3153     0.0000     0.0000 </r>
       <r>   -10.2719     0.0000     0.0000 </r>
       <r>   -10.2285     0.0000     0.0000 </r>
       <r>   -10.1851     0.0000     0.0000 </r>
       <r>   -10.1417     0.0000     0.0000 </r>
       <r>   -10.0983     0.0000     0.0000 </r>
       <r>   -10.0549     0.0000     0.0000 </r>
       <r>   -10.0115     0.0000     0.0000 </r>
       <r>    -9.9682     0.0000     0.0000 </r>
       <r>    -9.9248     0.0000     0.0000 </r>
       <r>    -9.8814     0.0000     0.0000 </r>
       <r>    -9.8380     0.0000     0.0000 </r>
       <r>    -9.7946     0.0000     0.0000 </r>
       <r>    -9.7512     0.0000     0.0000 </r>
       <r>    -9.7078     0.0000     0.0000 </r>
       <r>    -9.6644     0.0000     0.0000 </r>
       <r>    -9.6210     0.0000     0.0000 </r>
       <r>    -9.5777     0.0000     0.0000 </r>
       <r>    -9.5343     0.0000     0.0000 </r>
       <r>    -9.4909     0.0000     0.0000 </r>
       <r>    -9.4475     0.0000     0.0000 </r>
       <r>    -9.4041     0.0001     0.0000 </r>
       <r>    -9.3607     0.0005     0.0000 </r>
       <r>    -9.3173     0.0017     0.0001 </r>
       <r>    -9.2739     0.0053     0.0003 </r>
       <r>    -9.2305     0.0149     0.0010 </r>
       <r>    -9.1871     0.0382     0.0026 </r>
       <r>    -9.1438     0.0893     0.0065 </r>
       <r>    -9.1004     0.1901     0.0148 </r>
       <r>    -9.0570     0.3688     0.0308 </r>
       <r>    -9.0136     0.6516     0.0590 </r>
       <r>    -8.9702     1.0486     0.1045 </r>
       <r>    -8.9268     1.5370     0.1712 </r>
       <r>    -8.8834     2.0521     0.2603 </r>
       <r>    -8.8400     2.4954     0.3685 </r>
       <r>    -8.7966     2.7639     0.4885 </r>
       <r>    -8.7533     2.7884     0.6094 </r>
       <r>    -8.7099     2.5623     0.7206 </r>
       <r>    -8.6665     2.1446     0.8137 </r>
       <r>    -8.6231     1.6350     0.8846 </r>
       <r>    -8.5797     1.1359     0.9339 </r>
       <r>    -8.5363     0.7206     0.9652 </r>
       <r>    -8.4929     0.4222     0.9835 </r>
       <r>    -8.4495     0.2417     0.9940 </r>
       <r>    -8.4061     0.1683     1.0013 </r>
       <r>    -8.3628     0.1989     1.0099 </r>
       <r>    -8.3194     0.3512     1.0251 </r>
       <r>    -8.2760     0.6641     1.0540 </r>
       <r>    -8.2326     1.1842     1.1053 </r>
       <r>    -8.1892     1.9359     1.1893 </r>
       <r>    -8.1458     2.8860     1.3146 </r>
       <r>    -8.1024     3.9195     1.4846 </r>
       <r>    -8.0590     4.8486     1.6950 </r>
       <r>    -8.0156     5.4633     1.9320 </r>
       <r>    -7.9722     5.6069     2.1753 </r>
       <r>    -7.9289     5.2413     2.4027 </r>
       <r>    -7.8855     4.4626     2.5964 </r>
       <r>    -7.8421     3.4608     2.7465 </r>
       <r>    -7.7987     2.4446     2.8526 </r>
       <r>    -7.7553     1.5728     2.9208 </r>
       <r>    -7.7119     0.9216     2.9608 </r>
       <r>    -7.6685     0.4919     2.9822 </r>
       <r>    -7.6251     0.2391     2.9925 </r>
       <r>    -7.5817     0.1059     2.9971 </r>
       <r>    -7.5384     0.0427     2.9990 </r>
       <r>    -7.4950     0.0157     2.9997 </r>
       <r>    -7.4516     0.0052     2.9999 </r>
       <r>    -7.4082     0.0016     3.0000 </r>
       <r>    -7.3648     0.0004     3.0000 </r>
       <r>    -7.3214     0.0001     3.0000 </r>
       <r>    -7.2780     0.0000     3.0000 </r>
       <r>    -7.2346     0.0000     3.0000 </r>
       <r>    -7.1912     0.0000     3.0000 </r>
       <r>    -7.1479     0.0000     3.0000 </r>
       <r>    -7.1045     0.0000     3.0000 </r>
       <r>    -7.0611     0.0000     3.0000 </r>
       <r>    -7.0177     0.0000     3.0000 </r>
       <r>    -6.9743     0.0000     3.0000 </r>
       <r>    -6.9309     0.0000     3.0000 </r>
       <r>    -6.8875     0.0000     3.0000 </r>
       <r>    -6.8441     0.0001     3.0000 </r>
       <r>    -6.8007     0.0003     3.0000 </r>
       <r>    -6.7573     0.0010     3.0001 </r>
       <r>    -6.7140     0.0034     3.0002 </r>
       <r>    -6.6706     0.0107     3.0007 </r>
       <r>    -6.6272     0.0300     3.0020 </r>
       <r>    -6.5838     0.0770     3.0053 </r>
       <r>    -6.5404     0.1798     3.0131 </r>
       <r>    -6.4970     0.3827     3.0297 </r>
       <r>    -6.4536     0.7417     3.0619 </r>
       <r>    -6.4102     1.3094     3.1187 </r>
       <r>    -6.3668     2.1054     3.2101 </r>
       <r>    -6.3235     3.0835     3.3439 </r>
       <r>    -6.2801     4.1132     3.5223 </r>
       <r>    -6.2367     4.9977     3.7392 </r>
       <r>    -6.1933     5.5310     3.9792 </r>
       <r>    -6.1499     5.5761     4.2211 </r>
       <r>    -6.1065     5.1228     4.4434 </r>
       <r>    -6.0631     4.2945     4.6297 </r>
       <r>    -6.0197     3.3017     4.7730 </r>
       <r>    -5.9763     2.3721     4.8759 </r>
       <r>    -5.9330     1.6960     4.9495 </r>
       <r>    -5.8896     1.4105     5.0107 </r>
       <r>    -5.8462     1.6121     5.0806 </r>
       <r>    -5.8028     2.3683     5.1834 </r>
       <r>    -5.7594     3.7013     5.3440 </r>
       <r>    -5.7160     5.5414     5.5844 </r>
       <r>    -5.6726     7.6819     5.9177 </r>
       <r>    -5.6292     9.7797     6.3421 </r>
       <r>    -5.5858    11.4302     6.8380 </r>
       <r>    -5.5424    12.2967     7.3716 </r>
       <r>    -5.4991    12.2298     7.9022 </r>
       <r>    -5.4557    11.3106     8.3930 </r>
       <r>    -5.4123     9.7967     8.8180 </r>
       <r>    -5.3689     8.0077     9.1655 </r>
       <r>    -5.3255     6.2208     9.4354 </r>
       <r>    -5.2821     4.6197     9.6358 </r>
       <r>    -5.2387     3.3007     9.7790 </r>
       <r>    -5.1953     2.3048     9.8791 </r>
       <r>    -5.1519     1.6454     9.9504 </r>
       <r>    -5.1086     1.3188    10.0077 </r>
       <r>    -5.0652     1.3003    10.0641 </r>
       <r>    -5.0218     1.5342    10.1307 </r>
       <r>    -4.9784     1.9276    10.2143 </r>
       <r>    -4.9350     2.3564    10.3165 </r>
       <r>    -4.8916     2.6878    10.4332 </r>
       <r>    -4.8482     2.8160    10.5553 </r>
       <r>    -4.8048     2.6949    10.6723 </r>
       <r>    -4.7614     2.3514    10.7743 </r>
       <r>    -4.7181     1.8693    10.8554 </r>
       <r>    -4.6747     1.3537    10.9141 </r>
       <r>    -4.6313     0.8930    10.9529 </r>
       <r>    -4.5879     0.5365    10.9762 </r>
       <r>    -4.5445     0.2936    10.9889 </r>
       <r>    -4.5011     0.1463    10.9953 </r>
       <r>    -4.4577     0.0664    10.9981 </r>
       <r>    -4.4143     0.0275    10.9993 </r>
       <r>    -4.3709     0.0103    10.9998 </r>
       <r>    -4.3275     0.0035    10.9999 </r>
       <r>    -4.2842     0.0011    11.0000 </r>
       <r>    -4.2408     0.0003    11.0000 </r>
       <r>    -4.1974     0.0001    11.0000 </r>
       <r>    -4.1540     0.0000    11.0000 </r>
       <r>    -4.1106     0.0000    11.0000 </r>
       <r>    -4.0672     0.0000    11.0000 </r>
       <r>    -4.0238     0.0000    11.0000 </r>
       <r>    -3.9804     0.0000    11.0000 </r>
       <r>    -3.9370     0.0000    11.0000 </r>
       <r>    -3.8937     0.0000    11.0000 </r>
       <r>    -3.8503     0.0000    11.0000 </r>
       <r>    -3.8069     0.0000    11.0000 </r>
       <r>    -3.7635     0.0000    11.0000 </r>
       <r>    -3.7201     0.0000    11.0000 </r>
       <r>    -3.6767     0.0000    11.0000 </r>
       <r>    -3.6333     0.0000    11.0000 </r>
       <r>    -3.5899     0.0000    11.0000 </r>
       <r>    -3.5465     0.0000    11.0000 </r>
       <r>    -3.5032     0.0000    11.0000 </r>
       <r>    -3.4598     0.0000    11.0000 </r>
       <r>    -3.4164     0.0002    11.0000 </r>
       <r>    -3.3730     0.0007    11.0000 </r>
       <r>    -3.3296     0.0023    11.0001 </r>
       <r>    -3.2862     0.0069    11.0004 </r>
       <r>    -3.2428     0.0190    11.0013 </r>
       <r>    -3.1994     0.0477    11.0033 </r>
       <r>    -3.1560     0.1089    11.0081 </r>
       <r>    -3.1127     0.2265    11.0179 </r>
       <r>    -3.0693     0.4292    11.0365 </r>
       <r>    -3.0259     0.7408    11.0687 </r>
       <r>    -2.9825     1.1645    11.1192 </r>
       <r>    -2.9391     1.6673    11.1915 </r>
       <r>    -2.8957     2.1744    11.2859 </r>
       <r>    -2.8523     2.5829    11.3979 </r>
       <r>    -2.8089     2.7945    11.5192 </r>
       <r>    -2.7655     2.7539    11.6387 </r>
       <r>    -2.7221     2.4718    11.7459 </r>
       <r>    -2.6788     2.0209    11.8336 </r>
       <r>    -2.6354     1.5048    11.8989 </r>
       <r>    -2.5920     1.0207    11.9432 </r>
       <r>    -2.5486     0.6305    11.9706 </r>
       <r>    -2.5052     0.3548    11.9859 </r>
       <r>    -2.4618     0.1818    11.9938 </r>
       <r>    -2.4184     0.0849    11.9975 </r>
       <r>    -2.3750     0.0361    11.9991 </r>
       <r>    -2.3316     0.0140    11.9997 </r>
       <r>    -2.2883     0.0049    11.9999 </r>
       <r>    -2.2449     0.0016    12.0000 </r>
       <r>    -2.2015     0.0005    12.0000 </r>
       <r>    -2.1581     0.0001    12.0000 </r>
       <r>    -2.1147     0.0000    12.0000 </r>
       <r>    -2.0713     0.0000    12.0000 </r>
       <r>    -2.0279     0.0000    12.0000 </r>
       <r>    -1.9845     0.0000    12.0000 </r>
       <r>    -1.9411     0.0000    12.0000 </r>
       <r>    -1.8978     0.0000    12.0000 </r>
       <r>    -1.8544     0.0000    12.0000 </r>
       <r>    -1.8110     0.0000    12.0000 </r>
       <r>    -1.7676     0.0001    12.0000 </r>
       <r>    -1.7242     0.0002    12.0000 </r>
       <r>    -1.6808     0.0009    12.0001 </r>
       <r>    -1.6374     0.0030    12.0002 </r>
       <r>    -1.5940     0.0093    12.0006 </r>
       <r>    -1.5506     0.0264    12.0017 </r>
       <r>    -1.5072     0.0685    12.0047 </r>
       <r>    -1.4639     0.1620    12.0117 </r>
       <r>    -1.4205     0.3490    12.0269 </r>
       <r>    -1.3771     0.6846    12.0566 </r>
       <r>    -1.3337     1.2232    12.1096 </r>
       <r>    -1.2903     1.9906    12.1960 </r>
       <r>    -1.2469     2.9507    12.3240 </r>
       <r>    -1.2035     3.9839    12.4969 </r>
       <r>    -1.1601     4.8992    12.7095 </r>
       <r>    -1.1167     5.4876    12.9476 </r>
       <r>    -1.0734     5.5987    13.1905 </r>
       <r>    -1.0300     5.2033    13.4163 </r>
       <r>    -0.9866     4.4062    13.6074 </r>
       <r>    -0.9432     3.4033    13.7551 </r>
       <r>    -0.8998     2.4072    13.8596 </r>
       <r>    -0.8564     1.5825    13.9282 </r>
       <r>    -0.8130     1.0178    13.9724 </r>
       <r>    -0.7696     0.7355    14.0043 </r>
       <r>    -0.7262     0.7180    14.0355 </r>
       <r>    -0.6829     0.9285    14.0757 </r>
       <r>    -0.6395     1.3147    14.1328 </r>
       <r>    -0.5961     1.8010    14.2109 </r>
       <r>    -0.5527     2.2853    14.3101 </r>
       <r>    -0.5093     2.6532    14.4252 </r>
       <r>    -0.4659     2.8092    14.5471 </r>
       <r>    -0.4225     2.7109    14.6647 </r>
       <r>    -0.3791     2.3860    14.7682 </r>
       <r>    -0.3357     1.9211    14.8516 </r>
       <r>    -0.2923     1.4299    14.9136 </r>
       <r>    -0.2490     1.0180    14.9578 </r>
       <r>    -0.2056     0.7606    14.9908 </r>
       <r>    -0.1622     0.6976    15.0211 </r>
       <r>    -0.1188     0.8382    15.0575 </r>
       <r>    -0.0754     1.1617    15.1079 </r>
       <r>    -0.0320     1.6150    15.1779 </r>
       <r>     0.0114     2.1096    15.2695 </r>
       <r>     0.0548     2.5334    15.3794 </r>
       <r>     0.0982     2.7785    15.5000 </r>
       <r>     0.1415     2.7777    15.6205 </r>
       <r>     0.1849     2.5298    15.7302 </r>
       <r>     0.2283     2.0988    15.8213 </r>
       <r>     0.2717     1.5860    15.8901 </r>
       <r>     0.3151     1.0916    15.9375 </r>
       <r>     0.3585     0.6843    15.9672 </r>
       <r>     0.4019     0.3907    15.9841 </r>
       <r>     0.4453     0.2032    15.9929 </r>
       <r>     0.4887     0.0963    15.9971 </r>
       <r>     0.5320     0.0415    15.9989 </r>
       <r>     0.5754     0.0163    15.9996 </r>
       <r>     0.6188     0.0058    15.9999 </r>
       <r>     0.6622     0.0019    16.0000 </r>
       <r>     0.7056     0.0006    16.0000 </r>
       <r>     0.7490     0.0002    16.0000 </r>
       <r>     0.7924     0.0000    16.0000 </r>
       <r>     0.8358     0.0000    16.0000 </r>
       <r>     0.8792     0.0000    16.0000 </r>
       <r>     0.9226     0.0000    16.0000 </r>
       <r>     0.9659     0.0000    16.0000 </r>
       <r>     1.0093     0.0000    16.0000 </r>
       <r>     1.0527     0.0000    16.0000 </r>
       <r>     1.0961     0.0000    16.0000 </r>
       <r>     1.1395     0.0000    16.0000 </r>
       <r>     1.1829     0.0000    16.0000 </r>
       <r>     1.2263     0.0000    16.0000 </r>
       <r>     1.2697     0.0000    16.0000 </r>
       <r>     1.3131     0.0000    16.0000 </r>
       <r>     1.3564     0.0000    16.0000 </r>
       <r>     1.3998     0.0000    16.0000 </r>
       <r>     1.4432     0.0000    16.0000 </r>
       <r>     1.4866     0.0000    16.0000 </r>
       <r>     1.5300     0.0000    16.0000 </r>
       <r>     1.5734     0.0000    16.0000 </r>
       <r>     1.6168     0.0000    16.0000 </r>
       <r>     1.6602     0.0000    16.0000 </r>
       <r>     1.7036     0.0000    16.0000 </r>
       <r>     1.7469     0.0000    16.0000 </r>
       <r>     1.7903     0.0000    16.0000 </r>
       <r>     1.8337     0.0000    16.0000 </r>
       <r>     1.8771     0.0000    16.0000 </r>
       <r>     1.9205     0.0000    16.0000 </r>
       <r>     1.9639     0.0000    16.0000 </r>
       <r>     2.0073     0.0000    16.0000 </r>
       <r>     2.0507     0.0000    16.0000 </r>
       <r>     2.0941     0.0000    16.0000 </r>
       <r>     2.1374     0.0000    16.0000 </r>
       <r>     2.1808     0.0000    16.0000 </r>
       <r>     2.2242     0.0000    16.0000 </r>
      </set>
      <set comment="spin 2">
       <r>   -10.7925     0.0000     0.0000 </r>
       <r>   -10.7492     0.0000     0.0000 </r>
       <r>   -10.7058     0.0000     0.0000 </r>
       <r>   -10.6624     0.0000     0.0000 </r>
       <r>   -10.6190     0.0000     0.0000 </r>
       <r>   -10.5756     0.0000     0.0000 </r>
       <r>   -10.5322     0.0000     0.0000 </r>
       <r>   -10.4888     0.0000     0.0000 </r>
       <r>   -10.4454     0.0000     0.0000 </r>
       <r>   -10.4020     0.0000     0.0000 </r>
       <r>   -10.3587     0.0000     0.0000 </r>
       <r>   -10.3153     0.0000     0.0000 </r>
       <r>   -10.2719     0.0000     0.0000 </r>
       <r>   -10.2285     0.0000     0.0000 </r>
       <r>   -10.1851     0.0000     0.0000 </r>
       <r>   -10.1417     0.0000     0.0000 </r>
       <r>   -10.0983     0.0000     0.0000 </r>
       <r>   -10.0549     0.0000     0.0000 </r>
       <r>   -10.0115     0.0000     0.0000 </r>
       <r>    -9.9682     0.0000     0.0000 </r>
       <r>    -9.9248     0.0000     0.0000 </r>
       <r>    -9.8814     0.0000     0.0000 </r>
       <r>    -9.8380     0.0000     0.0000 </r>
       <r>    -9.7946     0.0000     0.0000 </r>
       <r>    -9.7512     0.0000     0.0000 </r>
       <r>    -9.7078     0.0000     0.0000 </r>
       <r>    -9.6644     0.0000     0.0000 </r>
       <r>    -9.6210     0.0000     0.0000 </r>
       <r>    -9.5777     0.0000     0.0000 </r>
       <r>    -9.5343     0.0000     0.0000 </r>
       <r>    -9.4909     0.0000     0.0000 </r>
       <r>    -9.4475     0.0000     0.0000 </r>
       <r>    -9.4041     0.0000     0.0000 </r>
       <r>    -9.3607     0.0000     0.0000 </r>
       <r>    -9.3173     0.0000     0.0000 </r>
       <r>    -9.2739     0.0000     0.0000 </r>
       <r>    -9.2305     0.0000     0.0000 </r>
       <r>    -9.1871     0.0000     0.0000 </r>
       <r>    -9.1438     0.0000     0.0000 </r>
       <r>    -9.1004     0.0000     0.0000 </r>
       <r>    -9.0570     0.0000     0.0000 </r>
       <r>    -9.0136     0.0000     0.0000 </r>
       <r>    -8.9702     0.0000     0.0000 </r>
       <r>    -8.9268     0.0000     0.0000 </r>
       <r>    -8.8834     0.0000     0.0000 </r>
       <r>    -8.8400     0.0000     0.0000 </r>
       <r>    -8.7966     0.0000     0.0000 </r>
       <r>    -8.7533     0.0000     0.0000 </r>
       <r>    -8.7099     0.0000     0.0000 </r>
       <r>    -8.6665     0.0000     0.0000 </r>
       <r>    -8.6231     0.0000     0.0000 </r>
       <r>    -8.5797     0.0000     0.0000 </r>
       <r>    -8.5363     0.0000     0.0000 </r>
       <r>    -8.4929     0.0000     0.0000 </r>
       <r>    -8.4495     0.0000     0.0000 </r>
       <r>    -8.4061     0.0000     0.0000 </r>
       <r>    -8.3628     0.0000     0.0000 </r>
       <r>    -8.3194     0.0000     0.0000 </r>
       <r>    -8.2760     0.0000     0.0000 </r>
       <r>    -8.2326     0.0000     0.0000 </r>
       <r>    -8.1892     0.0000     0.0000 </r>
       <r>    -8.1458     0.0000     0.0000 </r>
       <r>    -8.1024     0.0000     0.0000 </r>
       <r>    -8.0590     0.0000     0.0000 </r>
       <r>    -8.0156     0.0000     0.0000 </r>
       <r>    -7.9722     0.0000     0.0000 </r>
       <r>    -7.9289     0.0000     0.0000 </r>
       <r>    -7.8855     0.0000     0.0000 </r>
       <r>    -7.8421     0.0000     0.0000 </r>
       <r>    -7.7987     0.0000     0.0000 </r>
       <r>    -7.7553     0.0000     0.0000 </r>
       <r>    -7.7119     0.0000     0.0000 </r>
       <r>    -7.6685     0.0000     0.0000 </r>
       <r>    -7.6251     0.0000     0.0000 </r>
       <r>    -7.5817     0.0000     0.0000 </r>
       <r>    -7.5384     0.0000     0.0000 </r>
       <r>    -7.4950     0.0000     0.0000 </r>
       <r>    -7.4516     0.0000     0.0000 </r>
       <r>    -7.4082     0.0000     0.0000 </r>
       <r>    -7.3648     0.0000     0.0000 </r>
       <r>    -7.3214     0.0000     0.0000 </r>
       <r>    -7.2780     0.0000     0.0000 </r>
       <r>    -7.2346     0.0001     0.0000 </r>
       <r>    -7.1912     0.0005     0.0000 </r>
       <r>    -7.1479     0.0016     0.0001 </r>
       <r>    -7.1045     0.0048     0.0003 </r>
       <r>    -7.0611     0.0137     0.0009 </r>
       <r>    -7.0177     0.0356     0.0024 </r>
       <r>    -6.9743     0.0838     0.0061 </r>
       <r>    -6.9309     0.1797     0.0139 </r>
       <r>    -6.8875     0.3512     0.0291 </r>
       <r>    -6.8441     0.6251     0.0562 </r>
       <r>    -6.8007     1.0134     0.1002 </r>
       <r>    -6.7573     1.4964     0.1651 </r>
       <r>    -6.7140     2.0126     0.2525 </r>
       <r>    -6.6706     2.4655     0.3594 </r>
       <r>    -6.6272     2.7511     0.4788 </r>
       <r>    -6.5838     2.7960     0.6001 </r>
       <r>    -6.5404     2.5882     0.7124 </r>
       <r>    -6.4970     2.1823     0.8071 </r>
       <r>    -6.4536     1.6759     0.8798 </r>
       <r>    -6.4102     1.1723     0.9307 </r>
       <r>    -6.3668     0.7470     0.9631 </r>
       <r>    -6.3235     0.4339     0.9819 </r>
       <r>    -6.2801     0.2306     0.9919 </r>
       <r>    -6.2367     0.1154     0.9969 </r>
       <r>    -6.1933     0.0636     0.9997 </r>
       <r>    -6.1499     0.0609     1.0023 </r>
       <r>    -6.1065     0.1104     1.0071 </r>
       <r>    -6.0631     0.2364     1.0174 </r>
       <r>    -6.0197     0.4834     1.0384 </r>
       <r>    -5.9763     0.9069     1.0777 </r>
       <r>    -5.9330     1.5515     1.1450 </r>
       <r>    -5.8896     2.4177     1.2499 </r>
       <r>    -5.8462     3.4317     1.3988 </r>
       <r>    -5.8028     4.4366     1.5913 </r>
       <r>    -5.7594     5.2244     1.8180 </r>
       <r>    -5.7160     5.6035     2.0611 </r>
       <r>    -5.6726     5.4742     2.2987 </r>
       <r>    -5.6292     4.8713     2.5100 </r>
       <r>    -5.5858     3.9488     2.6814 </r>
       <r>    -5.5424     2.9178     2.8080 </r>
       <r>    -5.4991     1.9703     2.8934 </r>
       <r>    -5.4557     1.2305     2.9468 </r>
       <r>    -5.4123     0.7473     2.9793 </r>
       <r>    -5.3689     0.5219     3.0019 </r>
       <r>    -5.3255     0.5438     3.0255 </r>
       <r>    -5.2821     0.8144     3.0608 </r>
       <r>    -5.2387     1.3443     3.1192 </r>
       <r>    -5.1953     2.1268     3.2114 </r>
       <r>    -5.1519     3.1005     3.3460 </r>
       <r>    -5.1086     4.1277     3.5251 </r>
       <r>    -5.0652     5.0080     3.7424 </r>
       <r>    -5.0218     5.5349     3.9825 </r>
       <r>    -4.9784     5.5720     4.2243 </r>
       <r>    -4.9350     5.1095     4.4460 </r>
       <r>    -4.8916     4.2687     4.6312 </r>
       <r>    -4.8482     3.2518     4.7723 </r>
       <r>    -4.8048     2.2666     4.8706 </r>
       <r>    -4.7614     1.4670     4.9343 </r>
       <r>    -4.7181     0.9334     4.9748 </r>
       <r>    -4.6747     0.6916     5.0048 </r>
       <r>    -4.6313     0.7466     5.0372 </r>
       <r>    -4.5879     1.1061     5.0852 </r>
       <r>    -4.5445     1.7793     5.1624 </r>
       <r>    -4.5011     2.7497     5.2817 </r>
[...]
        <r>    -1.0734     0.0000     0.0049     0.0000     0.0049     0.0000     0.0006     0.0000     0.0006     0.0000 </r>
        <r>    -1.0300     0.0000     0.0101     0.0000     0.0101     0.0000     0.0012     0.0000     0.0012     0.0000 </r>
        <r>    -0.9866     0.0000     0.0189     0.0000     0.0189     0.0000     0.0023     0.0000     0.0023     0.0000 </r>
        <r>    -0.9432     0.0000     0.0322     0.0000     0.0322     0.0000     0.0039     0.0000     0.0039     0.0000 </r>
        <r>    -0.8998     0.0000     0.0498     0.0000     0.0498     0.0000     0.0060     0.0000     0.0060     0.0000 </r>
        <r>    -0.8564     0.0000     0.0703     0.0000     0.0703     0.0000     0.0085     0.0000     0.0085     0.0000 </r>
        <r>    -0.8130     0.0000     0.0904     0.0000     0.0904     0.0000     0.0109     0.0000     0.0109     0.0000 </r>
        <r>    -0.7696     0.0000     0.1058     0.0000     0.1058     0.0000     0.0128     0.0000     0.0128     0.0000 </r>
        <r>    -0.7262     0.0000     0.1128     0.0001     0.1128     0.0000     0.0136     0.0000     0.0136     0.0000 </r>
        <r>    -0.6829     0.0001     0.1095     0.0004     0.1095     0.0000     0.0132     0.0000     0.0132     0.0000 </r>
        <r>    -0.6395     0.0003     0.0969     0.0009     0.0969     0.0000     0.0117     0.0000     0.0117     0.0000 </r>
        <r>    -0.5961     0.0007     0.0780     0.0022     0.0780     0.0000     0.0094     0.0000     0.0094     0.0000 </r>
        <r>    -0.5527     0.0014     0.0573     0.0047     0.0573     0.0000     0.0069     0.0000     0.0069     0.0000 </r>
        <r>    -0.5093     0.0028     0.0383     0.0091     0.0383     0.0000     0.0046     0.0000     0.0046     0.0000 </r>
        <r>    -0.4659     0.0051     0.0233     0.0163     0.0233     0.0000     0.0028     0.0000     0.0028     0.0000 </r>
        <r>    -0.4225     0.0082     0.0129     0.0264     0.0129     0.0000     0.0016     0.0000     0.0016     0.0000 </r>
        <r>    -0.3791     0.0121     0.0065     0.0391     0.0065     0.0000     0.0008     0.0000     0.0008     0.0000 </r>
        <r>    -0.3357     0.0164     0.0030     0.0527     0.0030     0.0000     0.0004     0.0000     0.0004     0.0000 </r>
        <r>    -0.2923     0.0201     0.0013     0.0648     0.0013     0.0000     0.0002     0.0000     0.0002     0.0000 </r>
        <r>    -0.2490     0.0225     0.0005     0.0725     0.0005     0.0000     0.0001     0.0000     0.0001     0.0000 </r>
        <r>    -0.2056     0.0229     0.0002     0.0741     0.0002     0.0000     0.0000     0.0000     0.0000     0.0000 </r>
        <r>    -0.1622     0.0213     0.0001     0.0692     0.0001     0.0000     0.0000     0.0000     0.0000     0.0000 </r>
        <r>    -0.1188     0.0180     0.0000     0.0597     0.0000     0.0000     0.0000     0.0001     0.0000     0.0000 </r>
        <r>    -0.0754     0.0138     0.0000     0.0483     0.0000     0.0000     0.0000     0.0002     0.0000     0.0000 </r>
        <r>    -0.0320     0.0097     0.0000     0.0385     0.0000     0.0000     0.0000     0.0004     0.0000     0.0000 </r>
        <r>     0.0114     0.0062     0.0000     0.0325     0.0000     0.0000     0.0000     0.0006     0.0000     0.0000 </r>
        <r>     0.0548     0.0036     0.0000     0.0315     0.0000     0.0000     0.0000     0.0010     0.0000     0.0000 </r>
        <r>     0.0982     0.0019     0.0000     0.0348     0.0000     0.0000     0.0000     0.0014     0.0000     0.0000 </r>
        <r>     0.1415     0.0009     0.0000     0.0405     0.0000     0.0000     0.0000     0.0019     0.0000     0.0000 </r>
        <r>     0.1849     0.0004     0.0000     0.0462     0.0000     0.0000     0.0000     0.0023     0.0000     0.0000 </r>
        <r>     0.2283     0.0002     0.0000     0.0494     0.0000     0.0000     0.0000     0.0025     0.0000     0.0000 </r>
        <r>     0.2717     0.0001     0.0000     0.0486     0.0000     0.0000     0.0000     0.0024     0.0000     0.0000 </r>
        <r>     0.3151     0.0000     0.0000     0.0438     0.0000     0.0000     0.0000     0.0022     0.0000     0.0000 </r>
        <r>     0.3585     0.0000     0.0000     0.0360     0.0000     0.0000     0.0000     0.0018     0.0000     0.0000 </r>
        <r>     0.4019     0.0000     0.0000     0.0269     0.0000     0.0000     0.0000     0.0014     0.0000     0.0000 </r>
        <r>     0.4453     0.0000     0.0000     0.0184     0.0000     0.0000     0.0000     0.0009     0.0000     0.0000 </r>
        <r>     0.4887     0.0000     0.0000     0.0114     0.0000     0.0000     0.0000     0.0006     0.0000     0.0000 </r>
        <r>     0.5320     0.0000     0.0000     0.0065     0.0000     0.0000     0.0000     0.0003     0.0000     0.0000 </r>
        <r>     0.5754     0.0000     0.0000     0.0033     0.0000     0.0000     0.0000     0.0002     0.0000     0.0000 </r>
        <r>     0.6188     0.0000     0.0000     0.0016     0.0000     0.0000     0.0000     0.0001     0.0000     0.0000 </r>
        <r>     0.6622     0.0000     0.0000     0.0007     0.0000     0.0000     0.0000     0.0000     0.0000     0.0000 </r>
        <r>     0.7056     0.0000     0.0000     0.0003     0.0000     0.0000     0.0000     0.0000     0.0000     0.0000 </r>
        <r>     0.7490     0.0000     0.0000     0.0001     0.0000     0.0000     0.0000     0.0000     0.0000     0.0000 </r>
        <r>     0.7924     0.0000     0.0000     0.0000     0.0000     0.0000     0.0000     0.0000     0.0000     0.0000 </r>
        <r>     0.8358     0.0000     0.0000     0.0000     0.0000     0.0000     0.0000     0.0000     0.0000     0.0000 </r>
        <r>     0.8792     0.0000     0.0000     0.0000     0.0000     0.0000     0.0000     0.0000     0.0000     0.0000 </r>
        <r>     0.9226     0.0000     0.0000     0.0000     0.0000     0.0000     0.0000     0.0000     0.0000     0.0000 </r>
        <r>     0.9659     0.0000     0.0000     0.0000     0.0000     0.0000     0.0000     0.0000     0.0000     0.0000 </r>
        <r>     1.0093     0.0000     0.0000     0.0000     0.0000     0.0000     0.0000     0.0000     0.0000     0.0000 </r>
        <r>     1.0527     0.0000     0.0000     0.0000     0.0000     0.0000     0.0000     0.0000     0.0000     0.0000 </r>
        <r>     1.0961     0.0000     0.0000     0.0000     0.0000     0.0000     0.0000     0.0000     0.0000     0.0000 </r>
        <r>     1.1395     0.0000     0.0000     0.0000     0.0000     0.0000     0.0000     0.0000     0.0000     0.0000 </r>
        <r>     1.1829     0.0000     0.0000     0.0000     0.0000     0.0000     0.0000     0.0000     0.0000     0.0000 </r>
        <r>     1.2263     0.0000     0.0000     0.0000     0.0000     0.0000     0.0000     0.0000     0.0000     0.0000 </r>
        <r>     1.2697     0.0000     0.0000     0.0000     0.0000     0.0000     0.0000     0.0000     0.0000     0.0000 </r>
        <r>     1.3131     0.0000     0.0000     0.0000     0.0000     0.0000     0.0000     0.0000     0.0000     0.0000 </r>
        <r>     1.3564     0.0000     0.0000     0.0000     0.0000     0.0000     0.0000     0.0000     0.0000     0.0000 </r>
        <r>     1.3998     0.0000     0.0000     0.0000     0.0000     0.0000     0.0000     0.0000     0.0000     0.0000 </r>
        <r>     1.4432     0.0000     0.0000     0.0000     0.0000     0.0000     0.0000     0.0000     0.0000     0.0000 </r>
        <r>     1.4866     0.0000     0.0000     0.0000     0.0000     0.0000     0.0000     0.0000     0.0000     0.0000 </r>
        <r>     1.5300     0.0000     0.0000     0.0000     0.0000     0.0000     0.0000     0.0000     0.0000     0.0000 </r>
        <r>     1.5734     0.0000     0.0000     0.0000     0.0000     0.0000     0.0000     0.0000     0.0000     0.0000 </r>
        <r>     1.6168     0.0000     0.0000     0.0000     0.0000     0.0000     0.0000     0.0000     0.0000     0.0000 </r>
        <r>     1.6602     0.0000     0.0000     0.0000     0.0000     0.0000     0.0000     0.0000     0.0000     0.0000 </r>
        <r>     1.7036     0.0000     0.0000     0.0000     0.0000     0.0000     0.0000     0.0000     0.0000     0.0000 </r>
        <r>     1.7469     0.0000     0.0000     0.0000     0.0000     0.0000     0.0000     0.0000     0.0000     0.0000 </r>
        <r>     1.7903     0.0000     0.0000     0.0000     0.0000     0.0000     0.0000     0.0000     0.0000     0.0000 </r>
        <r>     1.8337     0.0000     0.0000     0.0000     0.0000     0.0000     0.0000     0.0000     0.0000     0.0000 </r>
        <r>     1.8771     0.0000     0.0000     0.0000     0.0000     0.0000     0.0000     0.0000     0.0000     0.0000 </r>
        <r>     1.9205     0.0000     0.0000     0.0000     0.0000     0.0000     0.0000     0.0000     0.0000     0.0000 </r>
        <r>     1.9639     0.0000     0.0000     0.0000     0.0000     0.0000     0.0000     0.0000     0.0000     0.0000 </r>
        <r>     2.0073     0.0000     0.0000     0.0000     0.0000     0.0000     0.0000     0.0000     0.0000     0.0000 </r>
        <r>     2.0507     0.0000     0.0000     0.0000     0.0000     0.0000     0.0000     0.0000     0.0000     0.0000 </r>
        <r>     2.0941     0.0000     0.0000     0.0000     0.0000     0.0000     0.0000     0.0000     0.0000     0.0000 </r>
        <r>     2.1374     0.0000     0.0000     0.0000     0.0000     0.0000     0.0000     0.0000     0.0000     0.0000 </r>
        <r>     2.1808     0.0000     0.0000     0.0000     0.0000     0.0000     0.0000     0.0000     0.0000     0.0000 </r>
        <r>     2.2242     0.0000     0.0000     0.0000     0.0000     0.0000     0.0000     0.0000     0.0000     0.0000 </r>
       </set>
      </set>
     </set>
    </array>
   </partial>
  </dos>
  <projected>
   <eigenvalues>
    <array>
     <dimension dim="1">band</dimension>
     <dimension dim="2">kpoint</dimension>
     <dimension dim="3">spin</dimension>
     <field>eigene</field>
     <field>occ</field>
     <set>
      <set comment="spin 1">
       <set comment="kpoint 1">
        <r>   -8.7925    1.0000 </r>
        <r>   -8.0036    1.0000 </r>
        <r>   -8.0036    1.0000 </r>
        <r>   -6.1897    1.0000 </r>
        <r>   -6.1895    1.0000 </r>
        <r>   -5.5699    1.0000 </r>
        <r>   -5.5697    1.0000 </r>
        <r>   -5.5624    1.0000 </r>
        <r>   -5.5624    1.0000 </r>
        <r>   -5.3660    1.0000 </r>
        <r>   -4.8679    1.0000 </r>
        <r>   -2.8157    0.0000 </r>
        <r>   -1.1074    0.0000 </r>
        <r>   -1.1074    0.0000 </r>
        <r>   -0.4826    0.0000 </r>
        <r>    0.0982    0.0000 </r>
       </set>
      </set>
      <set comment="spin 2">
       <set comment="kpoint 1">
        <r>   -6.6197    1.0000 </r>
        <r>   -5.7269    1.0000 </r>
        <r>   -5.7269    1.0000 </r>
        <r>   -5.0190    1.0000 </r>
        <r>   -5.0184    1.0000 </r>
        <r>   -4.3445    0.7976 </r>
        <r>   -4.3439    0.7962 </r>
        <r>   -4.1931    0.4061 </r>
        <r>   -3.1122    0.0000 </r>
        <r>   -3.0647    0.0000 </r>
        <r>   -3.0647    0.0000 </r>
        <r>   -2.0296    0.0000 </r>
        <r>   -0.7399    0.0000 </r>
        <r>   -0.7399    0.0000 </r>
        <r>   -0.2404    0.0000 </r>
        <r>    0.2242    0.0000 </r>
       </set>
      </set>
     </set>
    </array>
   </eigenvalues>
   <array>
    <dimension dim="1">ion</dimension>
    <dimension dim="2">band</dimension>
    <dimension dim="3">kpoint</dimension>
    <dimension dim="4">spin</dimension>
    <field>    s</field>
    <field>   py</field>
    <field>   pz</field>
    <field>   px</field>
    <field>  dxy</field>
    <field>  dyz</field>
    <field>  dz2</field>
    <field>  dxz</field>
    <field>x2-y2</field>
    <set>
     <set comment="spin1">
      <set comment="kpoint 1">
       <set comment="band 1">
        <r>  0.0203  0.0000  0.0097  0.0000  0.0000  0.0000  0.4755  0.0000  0.0000 </r>
        <r>  0.0203  0.0000  0.0097  0.0000  0.0000  0.0000  0.4755  0.0000  0.0000 </r>
       </set>
       <set comment="band 2">
        <r>  0.0000  0.0017  0.0000  0.0008  0.0000  0.3139  0.0000  0.1366  0.0000 </r>
        <r>  0.0000  0.0017  0.0000  0.0008  0.0000  0.3139  0.0000  0.1366  0.0000 </r>
       </set>
       <set comment="band 3">
        <r>  0.0000  0.0008  0.0000  0.0017  0.0000  0.1366  0.0000  0.3139  0.0000 </r>
        <r>  0.0000  0.0008  0.0000  0.0017  0.0000  0.1366  0.0000  0.3139  0.0000 </r>
       </set>
       <set comment="band 4">
        <r>  0.0000  0.0000  0.0000  0.0000  0.0000  0.0000  0.0000  0.0000  0.4395 </r>
        <r>  0.0000  0.0000  0.0000  0.0000  0.0000  0.0000  0.0000  0.0000  0.4395 </r>
       </set>
       <set comment="band 5">
        <r>  0.0000  0.0000  0.0000  0.0000  0.4395  0.0000  0.0000  0.0000  0.0000 </r>
        <r>  0.0000  0.0000  0.0000  0.0000  0.4395  0.0000  0.0000  0.0000  0.0000 </r>
       </set>
       <set comment="band 6">
        <r>  0.0000  0.0000  0.0000  0.0000  0.0000  0.0000  0.0000  0.0000  0.4565 </r>
        <r>  0.0000  0.0000  0.0000  0.0000  0.0000  0.0000  0.0000  0.0000  0.4565 </r>
       </set>
       <set comment="band 7">
        <r>  0.0000  0.0000  0.0000  0.0000  0.4565  0.0000  0.0000  0.0000  0.0000 </r>
        <r>  0.0000  0.0000  0.0000  0.0000  0.4565  0.0000  0.0000  0.0000  0.0000 </r>
       </set>
       <set comment="band 8">
        <r>  0.0000  0.0032  0.0000  0.0012  0.0000  0.3246  0.0000  0.1234  0.0000 </r>
        <r>  0.0000  0.0032  0.0000  0.0012  0.0000  0.3246  0.0000  0.1234  0.0000 </r>
       </set>
       <set comment="band 9">
        <r>  0.0000  0.0012  0.0000  0.0032  0.0000  0.1234  0.0000  0.3246  0.0000 </r>
        <r>  0.0000  0.0012  0.0000  0.0032  0.0000  0.1234  0.0000  0.3246  0.0000 </r>
       </set>
       <set comment="band 10">
        <r>  0.0183  0.0000  0.0088  0.0000  0.0000  0.0000  0.4155  0.0000  0.0000 </r>
        <r>  0.0183  0.0000  0.0088  0.0000  0.0000  0.0000  0.4155  0.0000  0.0000 </r>
       </set>
       <set comment="band 11">
        <r>  0.1736  0.0000  0.0025  0.0000  0.0000  0.0000  0.0132  0.0000  0.0000 </r>
        <r>  0.1736  0.0000  0.0025  0.0000  0.0000  0.0000  0.0132  0.0000  0.0000 </r>
       </set>
       <set comment="band 12">
        <r>  0.0911  0.0000  0.0292  0.0000  0.0000  0.0000  0.0044  0.0000  0.0000 </r>
        <r>  0.0911  0.0000  0.0292  0.0000  0.0000  0.0000  0.0044  0.0000  0.0000 </r>
       </set>
       <set comment="band 13">
        <r>  0.0000  0.0014  0.0000  0.0489  0.0000  0.0001  0.0000  0.0019  0.0000 </r>
        <r>  0.0000  0.0014  0.0000  0.0489  0.0000  0.0001  0.0000  0.0019  0.0000 </r>
       </set>
       <set comment="band 14">
        <r>  0.0000  0.0489  0.0000  0.0014  0.0000  0.0019  0.0000  0.0001  0.0000 </r>
        <r>  0.0000  0.0489  0.0000  0.0014  0.0000  0.0019  0.0000  0.0001  0.0000 </r>
       </set>
       <set comment="band 15">
        <r>  0.0093  0.0000  0.0477  0.0000  0.0000  0.0000  0.0003  0.0000  0.0000 </r>
        <r>  0.0093  0.0000  0.0477  0.0000  0.0000  0.0000  0.0003  0.0000  0.0000 </r>
       </set>
       <set comment="band 16">
        <r>  0.0005  0.0000  0.0135  0.0000  0.0000  0.0000  0.0010  0.0000  0.0000 </r>
        <r>  0.0005  0.0000  0.0135  0.0000  0.0000  0.0000  0.0010  0.0000  0.0000 </r>
       </set>
      </set>
     </set>
     <set comment="spin2">
      <set comment="kpoint 1">
       <set comment="band 1">
        <r>  0.0443  0.0000  0.0158  0.0000  0.0000  0.0000  0.4359  0.0000  0.0000 </r>
        <r>  0.0443  0.0000  0.0158  0.0000  0.0000  0.0000  0.4359  0.0000  0.0000 </r>
       </set>
       <set comment="band 2">
        <r>  0.0000  0.0024  0.0000  0.0027  0.0000  0.1990  0.0000  0.2309  0.0000 </r>
        <r>  0.0000  0.0024  0.0000  0.0027  0.0000  0.1990  0.0000  0.2309  0.0000 </r>
       </set>
       <set comment="band 3">
        <r>  0.0000  0.0027  0.0000  0.0024  0.0000  0.2309  0.0000  0.1990  0.0000 </r>
        <r>  0.0000  0.0027  0.0000  0.0024  0.0000  0.2309  0.0000  0.1990  0.0000 </r>
       </set>
       <set comment="band 4">
        <r>  0.0000  0.0000  0.0000  0.0000  0.4317  0.0000  0.0000  0.0000  0.0000 </r>
        <r>  0.0000  0.0000  0.0000  0.0000  0.4317  0.0000  0.0000  0.0000  0.0000 </r>
       </set>
       <set comment="band 5">
        <r>  0.0000  0.0000  0.0000  0.0000  0.0000  0.0000  0.0000  0.0000  0.4317 </r>
        <r>  0.0000  0.0000  0.0000  0.0000  0.0000  0.0000  0.0000  0.0000  0.4317 </r>
       </set>
       <set comment="band 6">
        <r>  0.0000  0.0000  0.0000  0.0000  0.4523  0.0000  0.0000  0.0000  0.0000 </r>
        <r>  0.0000  0.0000  0.0000  0.0000  0.4523  0.0000  0.0000  0.0000  0.0000 </r>
       </set>
       <set comment="band 7">
        <r>  0.0000  0.0000  0.0000  0.0000  0.0000  0.0000  0.0000  0.0000  0.4523 </r>
        <r>  0.0000  0.0000  0.0000  0.0000  0.0000  0.0000  0.0000  0.0000  0.4523 </r>
       </set>
       <set comment="band 8">
        <r>  0.1424  0.0000  0.0021  0.0000  0.0000  0.0000  0.0412  0.0000  0.0000 </r>
        <r>  0.1424  0.0000  0.0021  0.0000  0.0000  0.0000  0.0412  0.0000  0.0000 </r>
       </set>
       <set comment="band 9">
        <r>  0.0376  0.0000  0.0037  0.0000  0.0000  0.0000  0.3631  0.0000  0.0000 </r>
        <r>  0.0376  0.0000  0.0037  0.0000  0.0000  0.0000  0.3631  0.0000  0.0000 </r>
       </set>
       <set comment="band 10">
        <r>  0.0000  0.0055  0.0000  0.0005  0.0000  0.3869  0.0000  0.0370  0.0000 </r>
        <r>  0.0000  0.0055  0.0000  0.0005  0.0000  0.3869  0.0000  0.0370  0.0000 </r>
       </set>
       <set comment="band 11">
        <r>  0.0000  0.0005  0.0000  0.0055  0.0000  0.0370  0.0000  0.3869  0.0000 </r>
        <r>  0.0000  0.0005  0.0000  0.0055  0.0000  0.0370  0.0000  0.3869  0.0000 </r>
       </set>
       <set comment="band 12">
        <r>  0.0604  0.0000  0.0303  0.0000  0.0000  0.0000  0.0345  0.0000  0.0000 </r>
        <r>  0.0604  0.0000  0.0303  0.0000  0.0000  0.0000  0.0345  0.0000  0.0000 </r>
       </set>
       <set comment="band 13">
        <r>  0.0000  0.0180  0.0000  0.0222  0.0000  0.0022  0.0000  0.0027  0.0000 </r>
        <r>  0.0000  0.0180  0.0000  0.0222  0.0000  0.0022  0.0000  0.0027  0.0000 </r>
       </set>
       <set comment="band 14">
        <r>  0.0000  0.0222  0.0000  0.0180  0.0000  0.0027  0.0000  0.0022  0.0000 </r>
        <r>  0.0000  0.0222  0.0000  0.0180  0.0000  0.0027  0.0000  0.0022  0.0000 </r>
       </set>
       <set comment="band 15">
        <r>  0.0082  0.0000  0.0264  0.0000  0.0000  0.0000  0.0000  0.0000  0.0000 </r>
        <r>  0.0082  0.0000  0.0264  0.0000  0.0000  0.0000  0.0000  0.0000  0.0000 </r>
       </set>
       <set comment="band 16">
        <r>  0.0000  0.0000  0.0175  0.0000  0.0000  0.0000  0.0009  0.0000  0.0000 </r>
        <r>  0.0000  0.0000  0.0175  0.0000  0.0000  0.0000  0.0009  0.0000  0.0000 </r>
       </set>
      </set>
     </set>
    </set>
   </array>
  </projected>
 </calculation>
 <structure name="finalpos" >
  <crystal>
   <varray name="basis" >
    <v>      15.00000000       0.00000000       0.00000000 </v>
    <v>       0.00000000      15.00000000       0.00000000 </v>
    <v>       0.00000000       0.00000000      15.00000000 </v>
   </varray>
   <i name="volume">   3375.00000000 </i>
   <varray name="rec_basis" >
    <v>       0.06666667       0.00000000       0.00000000 </v>
    <v>       0.00000000       0.06666667       0.00000000 </v>
    <v>       0.00000000       0.00000000       0.06666667 </v>
   </varray>
  </crystal>
  <varray name="positions" >
   <v>       0.50000000       0.50000000       0.42512888 </v>
   <v>       0.50000000       0.50000000       0.57487112 </v>
  </varray>
 </structure>
</modeling>
